<?xml version="1.0"?>
<VTKFile type="UnstructuredGrid" version="0.1" byte_order="LittleEndian">
  <UnstructuredGrid>
    <Piece NumberOfPoints="7" NumberOfCells="7">
      <Points>
        <DataArray name="Position" type="Float64" NumberOfComponents="3" Format="ascii">
          0.902868 0.643009 0.0
          0.887826 0.688556 0.0
          0.573012 0.803415 0.0
          0.7025 0.848621 0.0
          0.808996 0.804917 0.0
          0.870007 0.860424 0.0
          0.850003 0.980133 0.0
        </DataArray>
      </Points>
      <Cells>
        <DataArray type="Int32" Name="connectivity" Format="ascii">
          0
          1
          2
          3
          4
          5
          6
        </DataArray>
        <DataArray type="Int32" Name="offsets" Format="ascii">
          1
          2
          3
          4
          5
          6
          7
        </DataArray>
        <DataArray type="UInt8" Name="types" Format="ascii">
          1
          1
          1
          1
          1
          1
          1
        </DataArray>
      </Cells>
      <PointData Scalars="scalars">
        <DataArray type="UInt64" Name="id" NumberOfComponents="1" Format="ascii">
          3
          4
          5
          6
          7
          8
          9
        </DataArray>
        <DataArray type="Float64" Name="velocity" NumberOfComponents="3" Format="ascii">
          1.00393e-05 -0.000227184 0
          2.35388e-05 -0.000186204 0
          0.000222536 -4.71284e-05 0
          0.000132005 -4.66984e-05 0
          7.95151e-05 -8.43244e-05 0
          2.76875e-05 -4.87641e-05 0
          7.55642e-06 -1.21578e-06 0
        </DataArray>
        <DataArray type="Float64" Name="function" NumberOfComponents="3" Format="ascii">
          0 0 0
          0 0 0
          0 0 0
          0 0 0
          0 0 0
          0 0 0
          0 0 0
        </DataArray>
        <DataArray type="Float64" Name="initial C_1" NumberOfComponents="1" Format="ascii">
          0
          0
          0
          0
          0
          0
          0
        </DataArray>
        <DataArray type="Float64" Name="initial position" NumberOfComponents="3" Format="ascii">
          0.90228 0.655338 0
          0.886462 0.698638 0
          0.560661 0.80575 0
          0.695098 0.8511 0
          0.804485 0.809466 0
          0.868443 0.86308 0
          0.849581 0.980201 0
        </DataArray>
      </PointData>
    </Piece>
  </UnstructuredGrid>
</VTKFile>
