<?xml version="1.0"?>
<VTKFile type="UnstructuredGrid" version="0.1" byte_order="LittleEndian">
  <UnstructuredGrid>
    <Piece NumberOfPoints="7" NumberOfCells="7">
      <Points>
        <DataArray name="Position" type="Float64" NumberOfComponents="3" Format="ascii">
          0.90228 0.655338 0.0
          0.886462 0.698638 0.0
          0.560661 0.80575 0.0
          0.695098 0.8511 0.0
          0.804485 0.809466 0.0
          0.868443 0.86308 0.0
          0.849581 0.980201 0.0
        </DataArray>
      </Points>
      <Cells>
        <DataArray type="Int32" Name="connectivity" Format="ascii">
          0
          1
          2
          3
          4
          5
          6
        </DataArray>
        <DataArray type="Int32" Name="offsets" Format="ascii">
          1
          2
          3
          4
          5
          6
          7
        </DataArray>
        <DataArray type="UInt8" Name="types" Format="ascii">
          1
          1
          1
          1
          1
          1
          1
        </DataArray>
      </Cells>
      <PointData Scalars="scalars">
        <DataArray type="UInt64" Name="id" NumberOfComponents="1" Format="ascii">
          3
          4
          5
          6
          7
          8
          9
        </DataArray>
        <DataArray type="Float64" Name="velocity" NumberOfComponents="3" Format="ascii">
          6.53484e-06 -0.000129502 0
          1.49649e-05 -0.000105569 0
          0.00012874 -2.13542e-05 0
          7.83975e-05 -2.5002e-05 0
          4.84188e-05 -4.71712e-05 0
          1.67456e-05 -2.78285e-05 0
          4.49592e-06 -7.14817e-07 0
        </DataArray>
        <DataArray type="Float64" Name="function" NumberOfComponents="3" Format="ascii">
          0 0 0
          0 0 0
          0 0 0
          0 0 0
          0 0 0
          0 0 0
          0 0 0
        </DataArray>
        <DataArray type="Float64" Name="initial C_1" NumberOfComponents="1" Format="ascii">
          0
          0
          0
          0
          0
          0
          0
        </DataArray>
        <DataArray type="Float64" Name="initial position" NumberOfComponents="3" Format="ascii">
          0.90228 0.655338 0
          0.886462 0.698638 0
          0.560661 0.80575 0
          0.695098 0.8511 0
          0.804485 0.809466 0
          0.868443 0.86308 0
          0.849581 0.980201 0
        </DataArray>
      </PointData>
    </Piece>
  </UnstructuredGrid>
</VTKFile>
