<?xml version="1.0"?>
<VTKFile type="UnstructuredGrid" version="0.1" byte_order="LittleEndian">
  <UnstructuredGrid>
    <Piece NumberOfPoints="3" NumberOfCells="3">
      <Points>
        <DataArray name="Position" type="Float64" NumberOfComponents="3" Format="ascii">
          0.485782 0.434821 0.0
          0.556657 0.481879 0.0
          0.730867 0.467838 0.0
        </DataArray>
      </Points>
      <Cells>
        <DataArray type="Int32" Name="connectivity" Format="ascii">
          0
          1
          2
        </DataArray>
        <DataArray type="Int32" Name="offsets" Format="ascii">
          1
          2
          3
        </DataArray>
        <DataArray type="UInt8" Name="types" Format="ascii">
          1
          1
          1
        </DataArray>
      </Cells>
      <PointData Scalars="scalars">
        <DataArray type="UInt64" Name="id" NumberOfComponents="1" Format="ascii">
          0
          1
          2
        </DataArray>
        <DataArray type="Float64" Name="velocity" NumberOfComponents="3" Format="ascii">
          0.000101583 -4.9004e-05 0
          0.000120078 -9.34886e-05 0
          6.55293e-05 -0.000187615 0
        </DataArray>
        <DataArray type="Float64" Name="function" NumberOfComponents="3" Format="ascii">
          0 5.20428e-11 0
          0 2.92932e-13 0
          0 4.63574e-13 0
        </DataArray>
        <DataArray type="Float64" Name="initial C_1" NumberOfComponents="1" Format="ascii">
          5.20428e-11
          2.92932e-13
          4.63574e-13
        </DataArray>
        <DataArray type="Float64" Name="initial position" NumberOfComponents="3" Format="ascii">
          0.485782 0.434821 0
          0.556657 0.481879 0
          0.730867 0.467838 0
        </DataArray>
      </PointData>
    </Piece>
  </UnstructuredGrid>
</VTKFile>
