# vtk DataFile Version 3.0
#This file was generated 
ASCII
DATASET UNSTRUCTURED_GRID

POINTS 32 double
0 -1 0
0.25 -1 0
0 0 0
0.25 0 0
0.25 -1 0
0.5 -1 0
0.25 0 0
0.5 0 0
0.5 -1 0
0.75 -1 0
0.5 0 0
0.75 0 0
0.75 -1 0
1 -1 0
0.75 0 0
1 0 0
0 0 0
0.25 0 0
0 10 0
0.25 10 0
0.25 0 0
0.5 0 0
0.25 10 0
0.5 10 0
0.5 0 0
0.75 0 0
0.5 10 0
0.75 10 0
0.75 0 0
1 0 0
0.75 10 0
1 10 0

CELLS 8 40
4	0	1	3	2
4	4	5	7	6
4	8	9	11	10
4	12	13	15	14
4	16	17	19	18
4	20	21	23	22
4	24	25	27	26
4	28	29	31	30

CELL_TYPES 8
 9 9 9 9 9 9 9 9
POINT_DATA 32
SCALARS temperature double 1
LOOKUP_TABLE default
0.125 0.125 0.125 0.125 0.375 0.375 0.375 0.375 0.625 0.625 0.625 0.625 0.875 0.875 0.875 0.875 0.125 0.125 0.125 0.125 0.375 0.375 0.375 0.375 0.625 0.625 0.625 0.625 0.875 0.875 0.875 0.875 
SCALARS adiabatic_temperature double 1
LOOKUP_TABLE default
0 0 0 0 0 0 0 0 0 0 0 0 0 0 0 0 0 0 0 0 0 0 0 0 0 0 0 0 0 0 0 0 
SCALARS adiabatic_pressure double 1
LOOKUP_TABLE default
1.25e+13 1.25e+13 1.25e+13 1.25e+13 3.75e+13 3.75e+13 3.75e+13 3.75e+13 6.25e+13 6.25e+13 6.25e+13 6.25e+13 8.75e+13 8.75e+13 8.75e+13 8.75e+13 1.25e+13 1.25e+13 1.25e+13 1.25e+13 3.75e+13 3.75e+13 3.75e+13 3.75e+13 6.25e+13 6.25e+13 6.25e+13 6.25e+13 8.75e+13 8.75e+13 8.75e+13 8.75e+13 
SCALARS adiabatic_density double 1
LOOKUP_TABLE default
1 1 1 1 1 1 1 1 1 1 1 1 1 1 1 1 1 1 1 1 1 1 1 1 1 1 1 1 1 1 1 1 
SCALARS adiabatic_density_derivative double 1
LOOKUP_TABLE default
0 0 0 0 0 0 0 0 0 0 0 0 0 0 0 0 0 0 0 0 0 0 0 0 0 0 0 0 0 0 0 0 
SCALARS velocity_magnitude double 1
LOOKUP_TABLE default
0.0540278 0.0540278 0.0540278 0.0540278 0.0540313 0.0540313 0.0540313 0.0540313 0.0540314 0.0540314 0.0540314 0.0540314 0.0540279 0.0540279 0.0540279 0.0540279 1.87383e-05 1.87383e-05 1.87383e-05 1.87383e-05 2.23809e-05 2.23809e-05 2.23809e-05 2.23809e-05 2.35201e-05 2.35201e-05 2.35201e-05 2.35201e-05 1.79211e-05 1.79211e-05 1.79211e-05 1.79211e-05 
SCALARS sinking_velocity double 1
LOOKUP_TABLE default
0.00948649 0.00948649 0.00948649 0.00948649 0.0229024 0.0229024 0.0229024 0.0229024 0.0229025 0.0229025 0.0229025 0.0229025 0.00948655 0.00948655 0.00948655 0.00948655 3.28299e-06 3.28299e-06 3.28299e-06 3.28299e-06 8.80472e-06 8.80472e-06 8.80472e-06 8.80472e-06 8.76826e-06 8.76826e-06 8.76826e-06 8.76826e-06 3.28077e-06 3.28077e-06 3.28077e-06 3.28077e-06 
SCALARS rising_velocity double 1
LOOKUP_TABLE default
0.0094865 0.0094865 0.0094865 0.0094865 0.0229024 0.0229024 0.0229024 0.0229024 0.0229025 0.0229025 0.0229025 0.0229025 0.00948656 0.00948656 0.00948656 0.00948656 3.28759e-06 3.28759e-06 3.28759e-06 3.28759e-06 8.81614e-06 8.81614e-06 8.81614e-06 8.81614e-06 8.78033e-06 8.78033e-06 8.78033e-06 8.78033e-06 3.28601e-06 3.28601e-06 3.28601e-06 3.28601e-06 
SCALARS viscosity double 1
LOOKUP_TABLE default
1e+09 1e+09 1e+09 1e+09 1e+09 1e+09 1e+09 1e+09 1e+09 1e+09 1e+09 1e+09 1e+09 1e+09 1e+09 1e+09 1e+09 1e+09 1e+09 1e+09 1e+09 1e+09 1e+09 1e+09 1e+09 1e+09 1e+09 1e+09 1e+09 1e+09 1e+09 1e+09 
SCALARS log_viscosity double 1
LOOKUP_TABLE default
9 9 9 9 9 9 9 9 9 9 9 9 9 9 9 9 9 9 9 9 9 9 9 9 9 9 9 9 9 9 9 9 
SCALARS vertical_heat_flux double 1
LOOKUP_TABLE default
1 1 1 1 1 1 1 1 1 1 1 1 1 1 1 1 1 1 1 1 1 1 1 1 1 1 1 1 1 1 1 1 
SCALARS vertical_mass_flux double 1
LOOKUP_TABLE default
6.0123e-10 6.0123e-10 6.0123e-10 6.0123e-10 1.4515e-09 1.4515e-09 1.4515e-09 1.4515e-09 1.45151e-09 1.45151e-09 1.45151e-09 1.45151e-09 6.01234e-10 6.01234e-10 6.01234e-10 6.01234e-10 2.08213e-13 2.08213e-13 2.08213e-13 2.08213e-13 5.58383e-13 5.58383e-13 5.58383e-13 5.58383e-13 5.56093e-13 5.56093e-13 5.56093e-13 5.56093e-13 2.08093e-13 2.08093e-13 2.08093e-13 2.08093e-13 
