# vtk DataFile Version 3.0
#This file was generated 
ASCII
DATASET UNSTRUCTURED_GRID

POINTS 32 double
0 -1 0
0.25 -1 0
0 0 0
0.25 0 0
0.25 -1 0
0.5 -1 0
0.25 0 0
0.5 0 0
0.5 -1 0
0.75 -1 0
0.5 0 0
0.75 0 0
0.75 -1 0
1 -1 0
0.75 0 0
1 0 0
0 0 0
0.25 0 0
0 10 0
0.25 10 0
0.25 0 0
0.5 0 0
0.25 10 0
0.5 10 0
0.5 0 0
0.75 0 0
0.5 10 0
0.75 10 0
0.75 0 0
1 0 0
0.75 10 0
1 10 0

CELLS 8 40
4	0	1	3	2
4	4	5	7	6
4	8	9	11	10
4	12	13	15	14
4	16	17	19	18
4	20	21	23	22
4	24	25	27	26
4	28	29	31	30

CELL_TYPES 8
 9 9 9 9 9 9 9 9
POINT_DATA 32
SCALARS temperature double 1
LOOKUP_TABLE default
0.125 0.125 0.125 0.125 0.375 0.375 0.375 0.375 0.625 0.625 0.625 0.625 0.875 0.875 0.875 0.875 0.125 0.125 0.125 0.125 0.375 0.375 0.375 0.375 0.625 0.625 0.625 0.625 0.875 0.875 0.875 0.875 
SCALARS adiabatic_temperature double 1
LOOKUP_TABLE default
0 0 0 0 0 0 0 0 0 0 0 0 0 0 0 0 0 0 0 0 0 0 0 0 0 0 0 0 0 0 0 0 
SCALARS velocity_magnitude double 1
LOOKUP_TABLE default
0.0540768 0.0540768 0.0540768 0.0540768 0.0540792 0.0540792 0.0540792 0.0540792 0.0540795 0.0540795 0.0540795 0.0540795 0.0540748 0.0540748 0.0540748 0.0540748 2.17484e-06 2.17484e-06 2.17484e-06 2.17484e-06 2.11999e-06 2.11999e-06 2.11999e-06 2.11999e-06 2.99217e-06 2.99217e-06 2.99217e-06 2.99217e-06 2.52638e-06 2.52638e-06 2.52638e-06 2.52638e-06 
SCALARS sinking_velocity double 1
LOOKUP_TABLE default
0.0094887 0.0094887 0.0094887 0.0094887 0.0229073 0.0229073 0.0229073 0.0229073 0.0229074 0.0229074 0.0229074 0.0229074 0.00948838 0.00948838 0.00948838 0.00948838 6.73824e-07 6.73824e-07 6.73824e-07 6.73824e-07 9.80811e-07 9.80811e-07 9.80811e-07 9.80811e-07 1.07596e-06 1.07596e-06 1.07596e-06 1.07596e-06 1.06739e-06 1.06739e-06 1.06739e-06 1.06739e-06 
SCALARS Vs double 1
LOOKUP_TABLE default
-1 -1 -1 -1 -1 -1 -1 -1 -1 -1 -1 -1 -1 -1 -1 -1 -1 -1 -1 -1 -1 -1 -1 -1 -1 -1 -1 -1 -1 -1 -1 -1 
SCALARS Vp double 1
LOOKUP_TABLE default
-1 -1 -1 -1 -1 -1 -1 -1 -1 -1 -1 -1 -1 -1 -1 -1 -1 -1 -1 -1 -1 -1 -1 -1 -1 -1 -1 -1 -1 -1 -1 -1 
SCALARS viscosity double 1
LOOKUP_TABLE default
1e+09 1e+09 1e+09 1e+09 1e+09 1e+09 1e+09 1e+09 1e+09 1e+09 1e+09 1e+09 1e+09 1e+09 1e+09 1e+09 1e+09 1e+09 1e+09 1e+09 1e+09 1e+09 1e+09 1e+09 1e+09 1e+09 1e+09 1e+09 1e+09 1e+09 1e+09 1e+09 
SCALARS vertical_heat_flux double 1
LOOKUP_TABLE default
1 1 1 1 1 1 1 1 1 1 1 1 1 1 1 1 1 1 1 1 1 1 1 1 1 1 1 1 1 1 1 1 
