<?xml version="1.0"?>
<VTKFile type="UnstructuredGrid" version="0.1" byte_order="LittleEndian">
  <UnstructuredGrid>
    <Piece NumberOfPoints="10" NumberOfCells="10">
      <Points>
        <DataArray name="Position" type="Float64" NumberOfComponents="3" Format="ascii">
          0.0961244 0.0756882 0.0
          0.389979 0.0124338 0.0
          0.846685 0.38067 0.0
          0.0585474 0.568118 0.0
          0.0720553 0.630323 0.0
          0.238244 0.961836 0.0
          0.578356 0.5692 0.0
          0.688715 0.72366 0.0
          0.459845 0.779817 0.0
          0.593263 0.785566 0.0
        </DataArray>
      </Points>
      <Cells>
        <DataArray type="Int32" Name="connectivity" Format="ascii">
          0
          1
          2
          3
          4
          5
          6
          7
          8
          9
        </DataArray>
        <DataArray type="Int32" Name="offsets" Format="ascii">
          1
          2
          3
          4
          5
          6
          7
          8
          9
          10
        </DataArray>
        <DataArray type="UInt8" Name="types" Format="ascii">
          1
          1
          1
          1
          1
          1
          1
          1
          1
          1
        </DataArray>
      </Cells>
      <PointData Scalars="scalars">
        <DataArray type="UInt64" Name="id" NumberOfComponents="1" Format="ascii">
          9
          5
          0
          1
          3
          7
          8
          6
          2
          4
        </DataArray>
        <DataArray type="Float64" Name="function" NumberOfComponents="1" Format="ascii">
          1 
          1 
          0 
          0 
          0 
          0 
          0 
          0 
          0 
          0 
        </DataArray>
        <DataArray type="Float64" Name="initial C_0" NumberOfComponents="1" Format="ascii">
          1.00001 
          1 
          4.09991e-10 
          -6.0452e-14 
          -1.13476e-16 
          0 
          4.37508e-17 
          0 
          0 
          0 
        </DataArray>
        <DataArray type="Float64" Name="initial position" NumberOfComponents="3" Format="ascii">
          0.109554 0.0706576 0 
          0.397189 0.0124484 0 
          0.845828 0.402305 0 
          0.0546888 0.546401 0 
          0.0673196 0.613281 0 
          0.235189 0.961657 0 
          0.564421 0.577535 0 
          0.678169 0.730201 0 
          0.44518 0.780338 0 
          0.580823 0.7886 0 
        </DataArray>
      </PointData>
    </Piece>
  </UnstructuredGrid>
</VTKFile>
