<?xml version="1.0"?>
<VTKFile type="UnstructuredGrid" version="0.1" byte_order="LittleEndian">
  <UnstructuredGrid>
    <Piece NumberOfPoints="10" NumberOfCells="10">
      <Points>
        <DataArray name="Position" type="Float64" NumberOfComponents="3" Format="ascii">
          0.854757 0.365581 0.0
          0.690523 0.467822 0.0
          0.829395 0.40415 0.0
          0.0434506 0.571237 0.0
          0.110487 0.632748 0.0
          0.354248 0.988288 0.0
          0.508478 0.689715 0.0
          0.665311 0.647494 0.0
          0.466163 0.759568 0.0
          0.886107 0.77617 0.0
        </DataArray>
      </Points>
      <Cells>
        <DataArray type="Int32" Name="connectivity" Format="ascii">
          0
          1
          2
          3
          4
          5
          6
          7
          8
          9
        </DataArray>
        <DataArray type="Int32" Name="offsets" Format="ascii">
          1
          2
          3
          4
          5
          6
          7
          8
          9
          10
        </DataArray>
        <DataArray type="UInt8" Name="types" Format="ascii">
          1
          1
          1
          1
          1
          1
          1
          1
          1
          1
        </DataArray>
      </Cells>
      <PointData Scalars="scalars">
        <DataArray type="UInt64" Name="id" NumberOfComponents="1" Format="ascii">
          8
          2
          0
          3
          9
          5
          7
          1
          6
          4
        </DataArray>
        <DataArray type="Float64" Name="function" NumberOfComponents="1" Format="ascii">
          0
          0
          0
          0
          0
          0
          0
          0
          0
          0
        </DataArray>
        <DataArray type="Float64" Name="initial C_0" NumberOfComponents="1" Format="ascii">
          1.8064e-09
          -1.08006e-12
          -3.36081e-10
          -6.21603e-14
          -8.94458e-17
          0
          0
          0
          0
          0
        </DataArray>
        <DataArray type="Float64" Name="initial position" NumberOfComponents="3" Format="ascii">
          0.854289 0.387448 0
          0.683201 0.483901 0
          0.827741 0.425211 0
          0.0405711 0.549461 0
          0.103378 0.616816 0
          0.353007 0.988281 0
          0.492388 0.692488 0
          0.653475 0.656374 0
          0.450929 0.760335 0
          0.884797 0.782159 0
        </DataArray>
      </PointData>
    </Piece>
  </UnstructuredGrid>
</VTKFile>
