<?xml version="1.0"?>
<VTKFile type="UnstructuredGrid" version="0.1" byte_order="LittleEndian">
  <UnstructuredGrid>
    <Piece NumberOfPoints="10" NumberOfCells="10">
      <Points>
        <DataArray name="Position" type="Float64" NumberOfComponents="3" Format="ascii">
          0.607294 0.0909031 0.0
          0.551877 0.20666 0.0
          0.348765 0.936586 0.0
          0.633782 0.633045 0.0
          0.704952 0.539209 0.0
          0.867054 0.539941 0.0
          0.536337 0.913979 0.0
          0.866218 0.772887 0.0
          0.912449 0.817102 0.0
          0.85464 0.999779 0.0
        </DataArray>
      </Points>
      <Cells>
        <DataArray type="Int32" Name="connectivity" Format="ascii">
          0
          1
          2
          3
          4
          5
          6
          7
          8
          9
        </DataArray>
        <DataArray type="Int32" Name="offsets" Format="ascii">
          1
          2
          3
          4
          5
          6
          7
          8
          9
          10
        </DataArray>
        <DataArray type="UInt8" Name="types" Format="ascii">
          1
          1
          1
          1
          1
          1
          1
          1
          1
          1
        </DataArray>
      </Cells>
      <PointData Scalars="scalars">
        <DataArray type="Float64" Name="id" NumberOfComponents="1" Format="ascii">
          4
          3
          7
          9
          0
          1
          2
          8
          6
          5
        </DataArray>
        <DataArray type="Float64" Name="function" NumberOfComponents="1" Format="ascii">
          1 
          0 
          0 
          0 
          0 
          0 
          0 
          0 
          0 
          0 
        </DataArray>
        <DataArray type="Float64" Name="initial C_0" NumberOfComponents="1" Format="ascii">
          0.999831 
          0.0379215 
          0 
          0 
          -1.30487e-15 
          -3.13454e-16 
          0 
          0 
          0 
          0 
        </DataArray>
        <DataArray type="Float64" Name="initial position" NumberOfComponents="3" Format="ascii">
          0.639276 0.0966801 0 
          0.576948 0.221701 0 
          0.341145 0.936319 0 
          0.617101 0.643564 0 
          0.693391 0.556612 0 
          0.864318 0.560554 0 
          0.526867 0.914522 0 
          0.86334 0.780336 0 
          0.912354 0.822351 0 
          0.854635 0.999779 0 
        </DataArray>
      </PointData>
    </Piece>
  </UnstructuredGrid>
</VTKFile>
