<?xml version="1.0"?>
<VTKFile type="UnstructuredGrid" version="0.1" byte_order="LittleEndian">
  <UnstructuredGrid>
    <Piece NumberOfPoints="16" NumberOfCells="16">
      <Points>
        <DataArray name="Position" type="Float64" NumberOfComponents="3" Format="ascii">
          0.3 0.1 0.0
          0.366667 0.1 0.0
          0.433333 0.1 0.0
          0.3 0.166667 0.0
          0.3 0.233333 0.0
          0.366667 0.166667 0.0
          0.433333 0.166667 0.0
          0.366667 0.233333 0.0
          0.433333 0.233333 0.0
          0.3 0.3 0.0
          0.366667 0.3 0.0
          0.433333 0.3 0.0
          0.5 0.1 0.0
          0.5 0.166667 0.0
          0.5 0.233333 0.0
          0.5 0.3 0.0
        </DataArray>
      </Points>
      <Cells>
        <DataArray type="Int32" Name="connectivity" Format="ascii">
          0
          1
          2
          3
          4
          5
          6
          7
          8
          9
          10
          11
          12
          13
          14
          15
        </DataArray>
        <DataArray type="Int32" Name="offsets" Format="ascii">
          1
          2
          3
          4
          5
          6
          7
          8
          9
          10
          11
          12
          13
          14
          15
          16
        </DataArray>
        <DataArray type="UInt8" Name="types" Format="ascii">
          1
          1
          1
          1
          1
          1
          1
          1
          1
          1
          1
          1
          1
          1
          1
          1
        </DataArray>
      </Cells>
      <PointData Scalars="scalars">
        <DataArray type="UInt64" Name="id" NumberOfComponents="1" Format="ascii">
          0
          4
          8
          1
          2
          5
          9
          6
          10
          3
          7
          11
          12
          13
          14
          15
        </DataArray>
        <DataArray type="Float64" Name="function" NumberOfComponents="1" Format="ascii">
          1
          1
          1
          1
          0
          1
          1
          0
          0
          0
          0
          0
          1
          1
          0
          0
        </DataArray>
        <DataArray type="Float64" Name="initial C_1" NumberOfComponents="1" Format="ascii">
          0.999984
          0.999975
          0.999961
          0.9874
          0.0906855
          0.981015
          0.970588
          0.0617019
          0.0403039
          0.000126903
          8.36807e-05
          5.34433e-05
          0.999939
          0.954329
          0.025904
          3.38418e-05
        </DataArray>
        <DataArray type="Float64" Name="initial position" NumberOfComponents="3" Format="ascii">
          0.3 0.1 0
          0.366667 0.1 0
          0.433333 0.1 0
          0.3 0.166667 0
          0.3 0.233333 0
          0.366667 0.166667 0
          0.433333 0.166667 0
          0.366667 0.233333 0
          0.433333 0.233333 0
          0.3 0.3 0
          0.366667 0.3 0
          0.433333 0.3 0
          0.5 0.1 0
          0.5 0.166667 0
          0.5 0.233333 0
          0.5 0.3 0
        </DataArray>
      </PointData>
    </Piece>
  </UnstructuredGrid>
</VTKFile>
