<?xml version="1.0"?>
<VTKFile type="UnstructuredGrid" version="0.1" byte_order="LittleEndian">
  <UnstructuredGrid>
    <Piece NumberOfPoints="10" NumberOfCells="10">
      <Points>
        <DataArray name="Position" type="Float64" NumberOfComponents="3" Format="ascii">
          0.44288 0.300966 0.0
          0.365471 0.330537 0.0
          0.373387 0.868371 0.0
          0.158319 0.884098 0.0
          0.772861 0.851501 0.0
          1.25837 0.647532 0.0
          1.91459 0.505102 0.0
          1.97541 0.511143 0.0
          1.06057 0.785625 0.0
          1.96629 0.831358 0.0
        </DataArray>
      </Points>
      <Cells>
        <DataArray type="Int32" Name="connectivity" Format="ascii">
          0
          1
          2
          3
          4
          5
          6
          7
          8
          9
        </DataArray>
        <DataArray type="Int32" Name="offsets" Format="ascii">
          1
          2
          3
          4
          5
          6
          7
          8
          9
          10
        </DataArray>
        <DataArray type="UInt8" Name="types" Format="ascii">
          1
          1
          1
          1
          1
          1
          1
          1
          1
          1
        </DataArray>
      </Cells>
      <PointData Scalars="scalars">
        <DataArray type="UInt64" Name="id" NumberOfComponents="1" Format="ascii">
          3
          4
          5
          6
          7
          0
          2
          1
          8
          9
        </DataArray>
      </PointData>
    </Piece>
  </UnstructuredGrid>
</VTKFile>
