<?xml version="1.0"?>
<VTKFile type="UnstructuredGrid" version="0.1" byte_order="LittleEndian">
  <UnstructuredGrid>
    <Piece NumberOfPoints="5" NumberOfCells="5">
      <Points>
        <DataArray name="Position" type="Float64" NumberOfComponents="3" Format="ascii">
          5 100 0.0
          5 190 0.0
          5 200 0.0
          5 210 0.0
          5 300 0.0
        </DataArray>
      </Points>
      <Cells>
        <DataArray type="Int32" Name="connectivity" Format="ascii">
          0
          1
          2
          3
          4
        </DataArray>
        <DataArray type="Int32" Name="offsets" Format="ascii">
          1
          2
          3
          4
          5
        </DataArray>
        <DataArray type="UInt8" Name="types" Format="ascii">
          1
          1
          1
          1
          1
        </DataArray>
      </Cells>
      <PointData Scalars="scalars">
        <DataArray type="UInt64" Name="id" NumberOfComponents="1" Format="ascii">
          3
          2
          1
          0
          4
        </DataArray>
        <DataArray type="Float64" Name="porosity" NumberOfComponents="1" Format="ascii">
          0.00100398
          0.0098349
          0.01
          0.0098349
          0.00100398
        </DataArray>
        <DataArray type="Float64" Name="peridotite" NumberOfComponents="1" Format="ascii">
          0.00100398
          0.0098349
          0.01
          0.0098349
          0.00100398
        </DataArray>
      </PointData>
    </Piece>
  </UnstructuredGrid>
</VTKFile>
