<?xml version="1.0"?>
<VTKFile type="UnstructuredGrid" version="0.1" byte_order="LittleEndian">
  <UnstructuredGrid>
    <Piece NumberOfPoints="10" NumberOfCells="10">
      <Points>
        <DataArray name="Position" type="Float64" NumberOfComponents="3" Format="ascii">
          0.618697 0.0937634 0.0
          0.561367 0.214799 0.0
          0.345272 0.93649 0.0
          0.626841 0.637802 0.0
          0.700461 0.546535 0.0
          0.86603 0.547865 0.0
          0.532197 0.914262 0.0
          0.865034 0.775853 0.0
          0.91241 0.819193 0.0
          0.854638 0.999779 0.0
        </DataArray>
      </Points>
      <Cells>
        <DataArray type="Int32" Name="connectivity" Format="ascii">
          0
          1
          2
          3
          4
          5
          6
          7
          8
          9
        </DataArray>
        <DataArray type="Int32" Name="offsets" Format="ascii">
          1
          2
          3
          4
          5
          6
          7
          8
          9
          10
        </DataArray>
        <DataArray type="UInt8" Name="types" Format="ascii">
          1
          1
          1
          1
          1
          1
          1
          1
          1
          1
        </DataArray>
      </Cells>
      <PointData Scalars="scalars">
        <DataArray type="Float64" Name="velocity" NumberOfComponents="3" Format="ascii">
          -0.000293984 -4.16674e-05 0 
          -0.000222591 -9.86036e-05 0 
          5.8957e-05 2.43296e-06 0 
          0.000139144 -8.23209e-05 0 
          0.000101001 -0.000143953 0 
          2.4451e-05 -0.000181282 0 
          7.61523e-05 -3.71795e-06 0 
          2.42077e-05 -6.40358e-05 0 
          7.92946e-07 -4.51131e-05 0 
          4.83744e-08 -1.20714e-09 0 
        </DataArray>
        <DataArray type="Float64" Name="id" NumberOfComponents="1" Format="ascii">
          4 
          3 
          7 
          9 
          0 
          1 
          2 
          8 
          6 
          5 
        </DataArray>
        <DataArray type="Float64" Name="function" NumberOfComponents="1" Format="ascii">
          1 
          0 
          0 
          0 
          0 
          0 
          0 
          0 
          0 
          0 
        </DataArray>
        <DataArray type="Float64" Name="initial C_0" NumberOfComponents="1" Format="ascii">
          0.999831 
          0.0379215 
          0 
          0 
          -1.30487e-15 
          -3.13454e-16 
          0 
          0 
          0 
          0 
        </DataArray>
        <DataArray type="Float64" Name="initial position" NumberOfComponents="3" Format="ascii">
          0.639276 0.0966801 0 
          0.576948 0.221701 0 
          0.341145 0.936319 0 
          0.617101 0.643564 0 
          0.693391 0.556612 0 
          0.864318 0.560554 0 
          0.526867 0.914522 0 
          0.86334 0.780336 0 
          0.912354 0.822351 0 
          0.854635 0.999779 0 
        </DataArray>
      </PointData>
    </Piece>
  </UnstructuredGrid>
</VTKFile>
