<?xml version="1.0"?>
<VTKFile type="UnstructuredGrid" version="0.1" byte_order="LittleEndian">
  <UnstructuredGrid>
    <Piece NumberOfPoints="0" NumberOfCells="0">
      <Points>
        <DataArray name="Position" type="Float64" NumberOfComponents="3" Format="ascii">
        </DataArray>
      </Points>
      <Cells>
        <DataArray type="Int32" Name="connectivity" Format="ascii">
        </DataArray>
        <DataArray type="Int32" Name="offsets" Format="ascii">
        </DataArray>
        <DataArray type="UInt8" Name="types" Format="ascii">
        </DataArray>
      </Cells>
      <PointData Scalars="scalars">
        <DataArray type="UInt64" Name="id" NumberOfComponents="1" Format="ascii">
        </DataArray>
        <DataArray type="Float64" Name="function" NumberOfComponents="1" Format="ascii">
        </DataArray>
        <DataArray type="Float64" Name="initial C_0" NumberOfComponents="1" Format="ascii">
        </DataArray>
        <DataArray type="Float64" Name="initial position" NumberOfComponents="3" Format="ascii">
        </DataArray>
      </PointData>
    </Piece>
  </UnstructuredGrid>
</VTKFile>
