<?xml version="1.0"?>
<VTKFile type="UnstructuredGrid" version="0.1" byte_order="LittleEndian">
  <UnstructuredGrid>
    <Piece NumberOfPoints="1000" NumberOfCells="1000">
      <Points>
        <DataArray name="Position" type="Float64" NumberOfComponents="3" Format="ascii">
          0.000246349 0.00520388 0.0
          0.048238 0.0733475 0.0
          0.237863 0.123844 0.0
          0.171675 0.105571 0.0
          0.131668 0.0987195 0.0
          0.205393 0.12054 0.0
          0.0505029 0.0590799 0.0
          0.190993 0.0126491 0.0
          0.055318 0.0441144 0.0
          0.206995 0.0458223 0.0
          0.223579 0.0873436 0.0
          0.0940979 0.105682 0.0
          0.237577 0.0315111 0.0
          0.0783996 0.115314 0.0
          0.0530705 0.0128228 0.0
          0.164542 0.0706756 0.0
          0.111486 0.0744739 0.0
          0.00172769 0.120743 0.0
          0.0349412 0.10268 0.0
          0.247665 0.0759606 0.0
          0.137374 0.0241619 0.0
          0.344594 0.0848597 0.0
          0.485214 0.0837603 0.0
          0.402108 0.0990326 0.0
          0.482405 0.00788505 0.0
          0.316072 0.00228881 0.0
          0.354373 0.112601 0.0
          0.313727 0.0665464 0.0
          0.358942 0.113168 0.0
          0.289742 0.0121463 0.0
          0.364246 0.0354624 0.0
          0.250695 0.00978521 0.0
          0.393197 0.106409 0.0
          0.315364 0.0644547 0.0
          0.411938 0.0946706 0.0
          0.363569 0.0988795 0.0
          0.437322 0.0695432 0.0
          0.484439 0.00734924 0.0
          0.487339 0.117129 0.0
          0.474715 0.023612 0.0
          0.398388 0.00192761 0.0
          0.39175 0.0993167 0.0
          0.487464 0.0987025 0.0
          0.286809 0.0995507 0.0
          0.365964 0.0170017 0.0
          0.433531 0.124263 0.0
          0.287538 0.103606 0.0
          0.0552648 0.190679 0.0
          0.0475642 0.159583 0.0
          0.125226 0.215594 0.0
          0.201749 0.175636 0.0
          0.190636 0.179374 0.0
          0.0193971 0.216033 0.0
          0.00750394 0.180109 0.0
          0.159212 0.169394 0.0
          0.0912625 0.22825 0.0
          0.119106 0.145775 0.0
          0.190413 0.166147 0.0
          0.230616 0.151684 0.0
          0.234621 0.15999 0.0
          0.216459 0.218408 0.0
          0.2018 0.130528 0.0
          0.0380494 0.166816 0.0
          0.224691 0.204132 0.0
          0.243593 0.154111 0.0
          0.203609 0.132188 0.0
          0.237708 0.219073 0.0
          0.441763 0.127364 0.0
          0.27995 0.193475 0.0
          0.393968 0.232718 0.0
          0.255613 0.241692 0.0
          0.30786 0.148611 0.0
          0.288619 0.239148 0.0
          0.417145 0.214884 0.0
          0.48818 0.138107 0.0
          0.564006 0.0515563 0.0
          0.678076 0.0695134 0.0
          0.645356 0.0267263 0.0
          0.739196 0.0909034 0.0
          0.729381 0.091125 0.0
          0.528878 0.00387371 0.0
          0.565454 0.0309611 0.0
          0.748411 0.123515 0.0
          0.732799 0.0841046 0.0
          0.704613 0.0237979 0.0
          0.69492 0.0546942 0.0
          0.73196 0.0538991 0.0
          0.591074 0.0467285 0.0
          0.636271 0.0168271 0.0
          0.505245 0.0753918 0.0
          0.686908 0.12243 0.0
          0.726178 0.0950559 0.0
          0.604275 0.113412 0.0
          0.689433 0.0332186 0.0
          0.871804 0.0658438 0.0
          0.861096 0.115742 0.0
          0.788659 0.014294 0.0
          0.904393 0.00239771 0.0
          0.992258 0.01335 0.0
          0.860006 0.0475215 0.0
          0.931415 0.108015 0.0
          0.974845 0.0402381 0.0
          0.81083 0.10927 0.0
          0.847575 0.116886 0.0
          0.951301 0.0568291 0.0
          0.988488 0.107234 0.0
          0.840734 0.0408366 0.0
          0.89814 0.0654155 0.0
          0.863366 0.00973504 0.0
          0.896045 0.0439326 0.0
          0.951689 0.0804597 0.0
          0.626054 0.232299 0.0
          0.694344 0.155583 0.0
          0.673248 0.129137 0.0
          0.65595 0.225499 0.0
          0.522401 0.233539 0.0
          0.515282 0.193149 0.0
          0.714635 0.193731 0.0
          0.648932 0.193666 0.0
          0.692536 0.249078 0.0
          0.721706 0.229387 0.0
          0.573453 0.207681 0.0
          0.704363 0.245248 0.0
          0.695008 0.24886 0.0
          0.567567 0.159619 0.0
          0.718504 0.131855 0.0
          0.570341 0.208381 0.0
          0.614459 0.219044 0.0
          0.632741 0.232199 0.0
          0.96317 0.226396 0.0
          0.789729 0.249081 0.0
          0.981999 0.242443 0.0
          0.83185 0.151663 0.0
          0.759207 0.237559 0.0
          0.844734 0.244943 0.0
          0.835023 0.240986 0.0
          0.878311 0.153322 0.0
          0.914395 0.237371 0.0
          0.984183 0.230142 0.0
          0.974115 0.125716 0.0
          0.844253 0.144731 0.0
          0.014914 0.251634 0.0
          0.120737 0.308448 0.0
          0.0262356 0.302004 0.0
          0.223985 0.289438 0.0
          0.145654 0.297442 0.0
          0.00199704 0.266991 0.0
          0.140159 0.273781 0.0
          0.125424 0.3569 0.0
          0.201086 0.308374 0.0
          0.032089 0.322799 0.0
          0.0572193 0.268139 0.0
          0.220305 0.275582 0.0
          0.151841 0.294377 0.0
          0.273066 0.334351 0.0
          0.44103 0.335018 0.0
          0.429426 0.266134 0.0
          0.488551 0.289171 0.0
          0.397453 0.342887 0.0
          0.270986 0.261363 0.0
          0.306757 0.265349 0.0
          0.314249 0.358576 0.0
          0.351709 0.356976 0.0
          0.284362 0.352195 0.0
          0.254437 0.353218 0.0
          0.444484 0.26273 0.0
          0.456127 0.260035 0.0
          0.106204 0.434982 0.0
          0.212215 0.452621 0.0
          0.22737 0.467835 0.0
          0.135478 0.385002 0.0
          0.178984 0.402991 0.0
          0.203188 0.383202 0.0
          0.227293 0.432525 0.0
          0.0994823 0.473971 0.0
          0.0340795 0.440428 0.0
          0.0313529 0.493272 0.0
          0.341151 0.386416 0.0
          0.38128 0.487345 0.0
          0.319625 0.431561 0.0
          0.326982 0.377916 0.0
          0.265352 0.489778 0.0
          0.419854 0.399124 0.0
          0.499841 0.44985 0.0
          0.441072 0.411106 0.0
          0.499596 0.382613 0.0
          0.425077 0.430671 0.0
          0.30229 0.385108 0.0
          0.343353 0.491559 0.0
          0.423464 0.395165 0.0
          0.421483 0.393083 0.0
          0.478564 0.405421 0.0
          0.611794 0.341055 0.0
          0.574251 0.309568 0.0
          0.644501 0.319571 0.0
          0.674165 0.304381 0.0
          0.542241 0.366121 0.0
          0.690152 0.276831 0.0
          0.737154 0.321032 0.0
          0.579594 0.294326 0.0
          0.52579 0.323655 0.0
          0.525741 0.298763 0.0
          0.604245 0.325899 0.0
          0.715828 0.290136 0.0
          0.542989 0.292635 0.0
          0.901023 0.366957 0.0
          0.762474 0.276195 0.0
          0.855833 0.373103 0.0
          0.980128 0.254828 0.0
          0.801514 0.296811 0.0
          0.7927 0.27126 0.0
          0.943193 0.262838 0.0
          0.807748 0.270772 0.0
          0.85558 0.356789 0.0
          0.941357 0.321957 0.0
          0.886457 0.340849 0.0
          0.782934 0.316627 0.0
          0.858138 0.318941 0.0
          0.921384 0.252436 0.0
          0.991484 0.257606 0.0
          0.790922 0.268929 0.0
          0.922243 0.345378 0.0
          0.924611 0.250971 0.0
          0.820794 0.316974 0.0
          0.878071 0.35736 0.0
          0.654383 0.462947 0.0
          0.680286 0.404759 0.0
          0.612117 0.46495 0.0
          0.527843 0.445663 0.0
          0.615596 0.462803 0.0
          0.6149 0.400863 0.0
          0.667703 0.43388 0.0
          0.601754 0.396496 0.0
          0.538696 0.410408 0.0
          0.525711 0.427383 0.0
          0.551346 0.423736 0.0
          0.585854 0.48546 0.0
          0.57038 0.462136 0.0
          0.658646 0.385358 0.0
          0.896201 0.388155 0.0
          0.799624 0.482739 0.0
          0.981842 0.413679 0.0
          0.864229 0.39124 0.0
          0.97732 0.492245 0.0
          0.870989 0.392469 0.0
          0.923861 0.45836 0.0
          0.902529 0.498584 0.0
          0.972481 0.388225 0.0
          0.917697 0.481181 0.0
          0.966011 0.432368 0.0
          0.820765 0.410612 0.0
          0.803805 0.405953 0.0
          1.07455 0.109498 0.0
          1.24012 0.00211632 0.0
          1.2413 0.104687 0.0
          1.20112 0.0135626 0.0
          1.21989 0.0269 0.0
          1.2008 0.0160233 0.0
          1.06629 0.109612 0.0
          1.12003 0.0629765 0.0
          1.23668 0.00120152 0.0
          1.01751 0.12201 0.0
          1.04173 0.10071 0.0
          1.17095 0.0776968 0.0
          1.09328 0.108369 0.0
          1.12385 0.0793132 0.0
          1.15786 0.0163512 0.0
          1.16843 0.107035 0.0
          1.13787 0.103509 0.0
          1.26857 0.0845282 0.0
          1.44587 0.0585055 0.0
          1.47168 0.0604005 0.0
          1.39545 0.0244639 0.0
          1.26025 0.0303671 0.0
          1.26365 0.0772345 0.0
          1.35213 0.0265091 0.0
          1.34258 0.0996224 0.0
          1.47423 0.0787554 0.0
          1.27871 0.0700903 0.0
          1.28982 0.112144 0.0
          1.25773 0.0187323 0.0
          1.43458 0.0719239 0.0
          1.32326 0.0457386 0.0
          1.28748 0.10457 0.0
          1.39413 0.121072 0.0
          1.26297 0.120011 0.0
          1.05984 0.214558 0.0
          1.16786 0.16253 0.0
          1.07325 0.204149 0.0
          1.15571 0.190958 0.0
          1.03124 0.15608 0.0
          1.21993 0.152894 0.0
          1.24701 0.207385 0.0
          1.02137 0.154741 0.0
          1.2128 0.128656 0.0
          1.16613 0.221975 0.0
          1.23338 0.131701 0.0
          1.07853 0.136006 0.0
          1.15573 0.228289 0.0
          1.20573 0.125602 0.0
          1.08229 0.218339 0.0
          1.24738 0.149695 0.0
          1.48566 0.173503 0.0
[...]
      <PointData Scalars="scalars">
        <DataArray type="Float64" Name="velocity" NumberOfComponents="3" Format="ascii">
          0 0 0 
          0 0 0 
          0 0 0 
          0 0 0 
          0 0 0 
          0 0 0 
          0 0 0 
          0 0 0 
          0 0 0 
          0 0 0 
          0 0 0 
          0 0 0 
          0 0 0 
          0 0 0 
          0 0 0 
          0 0 0 
          0 0 0 
          0 0 0 
          0 0 0 
          0 0 0 
          0 0 0 
          0 0 0 
          0 0 0 
          0 0 0 
          0 0 0 
          0 0 0 
          0 0 0 
          0 0 0 
          0 0 0 
          0 0 0 
          0 0 0 
          0 0 0 
          0 0 0 
          0 0 0 
          0 0 0 
          0 0 0 
          0 0 0 
          0 0 0 
          0 0 0 
          0 0 0 
          0 0 0 
          0 0 0 
          0 0 0 
          0 0 0 
          0 0 0 
          0 0 0 
          0 0 0 
          0 0 0 
          0 0 0 
          0 0 0 
          0 0 0 
          0 0 0 
          0 0 0 
          0 0 0 
          0 0 0 
          0 0 0 
          0 0 0 
          0 0 0 
          0 0 0 
          0 0 0 
          0 0 0 
          0 0 0 
          0 0 0 
          0 0 0 
          0 0 0 
          0 0 0 
          0 0 0 
          0 0 0 
          0 0 0 
          0 0 0 
          0 0 0 
          0 0 0 
          0 0 0 
          0 0 0 
          0 0 0 
          0 0 0 
          0 0 0 
          0 0 0 
          0 0 0 
          0 0 0 
          0 0 0 
          0 0 0 
          0 0 0 
          0 0 0 
          0 0 0 
          0 0 0 
          0 0 0 
          0 0 0 
          0 0 0 
          0 0 0 
          0 0 0 
          0 0 0 
          0 0 0 
          0 0 0 
          0 0 0 
          0 0 0 
          0 0 0 
          0 0 0 
          0 0 0 
          0 0 0 
          0 0 0 
          0 0 0 
          0 0 0 
          0 0 0 
          0 0 0 
          0 0 0 
          0 0 0 
          0 0 0 
          0 0 0 
          0 0 0 
          0 0 0 
          0 0 0 
          0 0 0 
          0 0 0 
          0 0 0 
          0 0 0 
          0 0 0 
          0 0 0 
          0 0 0 
          0 0 0 
          0 0 0 
          0 0 0 
          0 0 0 
          0 0 0 
          0 0 0 
          0 0 0 
          0 0 0 
          0 0 0 
          0 0 0 
          0 0 0 
          0 0 0 
          0 0 0 
          0 0 0 
          0 0 0 
          0 0 0 
          0 0 0 
          0 0 0 
          0 0 0 
          0 0 0 
          0 0 0 
          0 0 0 
          0 0 0 
          0 0 0 
          0 0 0 
          0 0 0 
          0 0 0 
          0 0 0 
          0 0 0 
          0 0 0 
          0 0 0 
          0 0 0 
          0 0 0 
          0 0 0 
          0 0 0 
          0 0 0 
          0 0 0 
          0 0 0 
          0 0 0 
          0 0 0 
          0 0 0 
          0 0 0 
          0 0 0 
          0 0 0 
          0 0 0 
          0 0 0 
          0 0 0 
          0 0 0 
          0 0 0 
          0 0 0 
          0 0 0 
          0 0 0 
          0 0 0 
          0 0 0 
          0 0 0 
          0 0 0 
          0 0 0 
          0 0 0 
          0 0 0 
          0 0 0 
          0 0 0 
          0 0 0 
          0 0 0 
          0 0 0 
          0 0 0 
          0 0 0 
          0 0 0 
          0 0 0 
          0 0 0 
          0 0 0 
          0 0 0 
          0 0 0 
          0 0 0 
          0 0 0 
          0 0 0 
          0 0 0 
          0 0 0 
          0 0 0 
          0 0 0 
          0 0 0 
          0 0 0 
          0 0 0 
          0 0 0 
          0 0 0 
          0 0 0 
          0 0 0 
          0 0 0 
          0 0 0 
          0 0 0 
          0 0 0 
          0 0 0 
          0 0 0 
          0 0 0 
          0 0 0 
          0 0 0 
          0 0 0 
          0 0 0 
          0 0 0 
          0 0 0 
          0 0 0 
          0 0 0 
          0 0 0 
          0 0 0 
          0 0 0 
          0 0 0 
          0 0 0 
          0 0 0 
          0 0 0 
          0 0 0 
          0 0 0 
          0 0 0 
          0 0 0 
          0 0 0 
          0 0 0 
          0 0 0 
          0 0 0 
          0 0 0 
          0 0 0 
          0 0 0 
          0 0 0 
          0 0 0 
          0 0 0 
          0 0 0 
          0 0 0 
          0 0 0 
          0 0 0 
          0 0 0 
          0 0 0 
          0 0 0 
          0 0 0 
          0 0 0 
          0 0 0 
          0 0 0 
          0 0 0 
          0 0 0 
          0 0 0 
          0 0 0 
          0 0 0 
          0 0 0 
          0 0 0 
          0 0 0 
          0 0 0 
          0 0 0 
          0 0 0 
          0 0 0 
          0 0 0 
          0 0 0 
          0 0 0 
          0 0 0 
          0 0 0 
          0 0 0 
          0 0 0 
          0 0 0 
          0 0 0 
          0 0 0 
          0 0 0 
          0 0 0 
          0 0 0 
          0 0 0 
          0 0 0 
          0 0 0 
          0 0 0 
          0 0 0 
          0 0 0 
          0 0 0 
          0 0 0 
          0 0 0 
          0 0 0 
          0 0 0 
          0 0 0 
          0 0 0 
          0 0 0 
          0 0 0 
          0 0 0 
          0 0 0 
          0 0 0 
          0 0 0 
          0 0 0 
          0 0 0 
          0 0 0 
          0 0 0 
          0 0 0 
          0 0 0 
          0 0 0 
          0 0 0 
          0 0 0 
          0 0 0 
          0 0 0 
          0 0 0 
          0 0 0 
          0 0 0 
          0 0 0 
          0 0 0 
          0 0 0 
          0 0 0 
          0 0 0 
          0 0 0 
          0 0 0 
          0 0 0 
          0 0 0 
          0 0 0 
          0 0 0 
          0 0 0 
          0 0 0 
          0 0 0 
          0 0 0 
          0 0 0 
          0 0 0 
          0 0 0 
          0 0 0 
          0 0 0 
          0 0 0 
          0 0 0 
          0 0 0 
          0 0 0 
          0 0 0 
          0 0 0 
          0 0 0 
          0 0 0 
          0 0 0 
          0 0 0 
          0 0 0 
          0 0 0 
          0 0 0 
          0 0 0 
          0 0 0 
          0 0 0 
          0 0 0 
          0 0 0 
          0 0 0 
          0 0 0 
          0 0 0 
          0 0 0 
          0 0 0 
          0 0 0 
          0 0 0 
          0 0 0 
          0 0 0 
          0 0 0 
          0 0 0 
          0 0 0 
          0 0 0 
          0 0 0 
          0 0 0 
          0 0 0 
          0 0 0 
          0 0 0 
          0 0 0 
          0 0 0 
          0 0 0 
          0 0 0 
          0 0 0 
          0 0 0 
          0 0 0 
          0 0 0 
          0 0 0 
          0 0 0 
          0 0 0 
          0 0 0 
          0 0 0 
          0 0 0 
          0 0 0 
          0 0 0 
          0 0 0 
          0 0 0 
          0 0 0 
          0 0 0 
          0 0 0 
          0 0 0 
          0 0 0 
          0 0 0 
          0 0 0 
          0 0 0 
          0 0 0 
          0 0 0 
          0 0 0 
          0 0 0 
          0 0 0 
          0 0 0 
          0 0 0 
          0 0 0 
          0 0 0 
          0 0 0 
          0 0 0 
          0 0 0 
          0 0 0 
          0 0 0 
          0 0 0 
          0 0 0 
          0 0 0 
          0 0 0 
          0 0 0 
          0 0 0 
          0 0 0 
          0 0 0 
          0 0 0 
          0 0 0 
          0 0 0 
          0 0 0 
          0 0 0 
          0 0 0 
          0 0 0 
          0 0 0 
          0 0 0 
          0 0 0 
          0 0 0 
          0 0 0 
          0 0 0 
          0 0 0 
          0 0 0 
          0 0 0 
          0 0 0 
          0 0 0 
          0 0 0 
          0 0 0 
          0 0 0 
          0 0 0 
          0 0 0 
          0 0 0 
          0 0 0 
          0 0 0 
          0 0 0 
          0 0 0 
          0 0 0 
          0 0 0 
          0 0 0 
          0 0 0 
          0 0 0 
          0 0 0 
          0 0 0 
          0 0 0 
          0 0 0 
          0 0 0 
          0 0 0 
          0 0 0 
          0 0 0 
          0 0 0 
          0 0 0 
          0 0 0 
          0 0 0 
          0 0 0 
          0 0 0 
          0 0 0 
          0 0 0 
          0 0 0 
          0 0 0 
          0 0 0 
          0 0 0 
          0 0 0 
          0 0 0 
          0 0 0 
          0 0 0 
          0 0 0 
          0 0 0 
          0 0 0 
          0 0 0 
          0 0 0 
          0 0 0 
          0 0 0 
          0 0 0 
          0 0 0 
          0 0 0 
          0 0 0 
          0 0 0 
          0 0 0 
          0 0 0 
          0 0 0 
          0 0 0 
          0 0 0 
          0 0 0 
          0 0 0 
          0 0 0 
          0 0 0 
          0 0 0 
          0 0 0 
          0 0 0 
          0 0 0 
          0 0 0 
          0 0 0 
          0 0 0 
          0 0 0 
          0 0 0 
          0 0 0 
          0 0 0 
          0 0 0 
          0 0 0 
          0 0 0 
          0 0 0 
          0 0 0 
          0 0 0 
          0 0 0 
          0 0 0 
          0 0 0 
          0 0 0 
          0 0 0 
          0 0 0 
          0 0 0 
          0 0 0 
          0 0 0 
          0 0 0 
          0 0 0 
          0 0 0 
          0 0 0 
          0 0 0 
          0 0 0 
          0 0 0 
          0 0 0 
          0 0 0 
          0 0 0 
          0 0 0 
          0 0 0 
          0 0 0 
          0 0 0 
          0 0 0 
          0 0 0 
          0 0 0 
          0 0 0 
          0 0 0 
          0 0 0 
          0 0 0 
          0 0 0 
          0 0 0 
          0 0 0 
          0 0 0 
          0 0 0 
          0 0 0 
          0 0 0 
          0 0 0 
          0 0 0 
          0 0 0 
          0 0 0 
          0 0 0 
          0 0 0 
          0 0 0 
          0 0 0 
          0 0 0 
          0 0 0 
          0 0 0 
          0 0 0 
          0 0 0 
          0 0 0 
          0 0 0 
          0 0 0 
          0 0 0 
          0 0 0 
          0 0 0 
          0 0 0 
          0 0 0 
          0 0 0 
          0 0 0 
          0 0 0 
          0 0 0 
          0 0 0 
          0 0 0 
          0 0 0 
          0 0 0 
          0 0 0 
          0 0 0 
          0 0 0 
          0 0 0 
          0 0 0 
          0 0 0 
          0 0 0 
          0 0 0 
          0 0 0 
          0 0 0 
          0 0 0 
          0 0 0 
          0 0 0 
          0 0 0 
          0 0 0 
          0 0 0 
          0 0 0 
          0 0 0 
          0 0 0 
          0 0 0 
          0 0 0 
          0 0 0 
          0 0 0 
          0 0 0 
          0 0 0 
          0 0 0 
          0 0 0 
          0 0 0 
          0 0 0 
          0 0 0 
          0 0 0 
          0 0 0 
          0 0 0 
          0 0 0 
          0 0 0 
          0 0 0 
          0 0 0 
          0 0 0 
          0 0 0 
          0 0 0 
          0 0 0 
          0 0 0 
          0 0 0 
          0 0 0 
          0 0 0 
          0 0 0 
          0 0 0 
          0 0 0 
          0 0 0 
          0 0 0 
          0 0 0 
          0 0 0 
          0 0 0 
          0 0 0 
          0 0 0 
          0 0 0 
          0 0 0 
          0 0 0 
          0 0 0 
          0 0 0 
          0 0 0 
          0 0 0 
          0 0 0 
          0 0 0 
          0 0 0 
          0 0 0 
          0 0 0 
          0 0 0 
          0 0 0 
          0 0 0 
          0 0 0 
          0 0 0 
          0 0 0 
          0 0 0 
          0 0 0 
          0 0 0 
          0 0 0 
          0 0 0 
          0 0 0 
          0 0 0 
          0 0 0 
          0 0 0 
          0 0 0 
          0 0 0 
          0 0 0 
          0 0 0 
          0 0 0 
          0 0 0 
          0 0 0 
          0 0 0 
          0 0 0 
          0 0 0 
          0 0 0 
          0 0 0 
          0 0 0 
          0 0 0 
          0 0 0 
          0 0 0 
          0 0 0 
          0 0 0 
          0 0 0 
          0 0 0 
          0 0 0 
          0 0 0 
          0 0 0 
          0 0 0 
          0 0 0 
          0 0 0 
          0 0 0 
          0 0 0 
          0 0 0 
          0 0 0 
          0 0 0 
          0 0 0 
          0 0 0 
          0 0 0 
          0 0 0 
          0 0 0 
          0 0 0 
          0 0 0 
          0 0 0 
          0 0 0 
          0 0 0 
          0 0 0 
          0 0 0 
          0 0 0 
          0 0 0 
          0 0 0 
          0 0 0 
          0 0 0 
          0 0 0 
          0 0 0 
          0 0 0 
          0 0 0 
          0 0 0 
          0 0 0 
          0 0 0 
          0 0 0 
          0 0 0 
          0 0 0 
          0 0 0 
          0 0 0 
          0 0 0 
          0 0 0 
          0 0 0 
          0 0 0 
          0 0 0 
          0 0 0 
          0 0 0 
          0 0 0 
          0 0 0 
          0 0 0 
          0 0 0 
          0 0 0 
          0 0 0 
          0 0 0 
          0 0 0 
          0 0 0 
          0 0 0 
          0 0 0 
          0 0 0 
          0 0 0 
          0 0 0 
          0 0 0 
          0 0 0 
          0 0 0 
          0 0 0 
          0 0 0 
          0 0 0 
          0 0 0 
          0 0 0 
          0 0 0 
          0 0 0 
          0 0 0 
          0 0 0 
          0 0 0 
          0 0 0 
          0 0 0 
          0 0 0 
          0 0 0 
          0 0 0 
          0 0 0 
          0 0 0 
          0 0 0 
          0 0 0 
          0 0 0 
          0 0 0 
          0 0 0 
          0 0 0 
          0 0 0 
          0 0 0 
          0 0 0 
          0 0 0 
          0 0 0 
          0 0 0 
          0 0 0 
          0 0 0 
          0 0 0 
          0 0 0 
          0 0 0 
          0 0 0 
          0 0 0 
          0 0 0 
          0 0 0 
          0 0 0 
          0 0 0 
          0 0 0 
          0 0 0 
          0 0 0 
          0 0 0 
          0 0 0 
          0 0 0 
          0 0 0 
          0 0 0 
          0 0 0 
          0 0 0 
          0 0 0 
          0 0 0 
          0 0 0 
          0 0 0 
          0 0 0 
          0 0 0 
          0 0 0 
          0 0 0 
          0 0 0 
          0 0 0 
          0 0 0 
          0 0 0 
          0 0 0 
          0 0 0 
          0 0 0 
          0 0 0 
          0 0 0 
          0 0 0 
          0 0 0 
          0 0 0 
          0 0 0 
          0 0 0 
          0 0 0 
          0 0 0 
          0 0 0 
          0 0 0 
          0 0 0 
          0 0 0 
          0 0 0 
          0 0 0 
          0 0 0 
          0 0 0 
          0 0 0 
          0 0 0 
          0 0 0 
          0 0 0 
          0 0 0 
          0 0 0 
          0 0 0 
          0 0 0 
          0 0 0 
          0 0 0 
          0 0 0 
          0 0 0 
          0 0 0 
          0 0 0 
          0 0 0 
          0 0 0 
          0 0 0 
          0 0 0 
          0 0 0 
          0 0 0 
          0 0 0 
          0 0 0 
          0 0 0 
          0 0 0 
          0 0 0 
          0 0 0 
          0 0 0 
          0 0 0 
          0 0 0 
          0 0 0 
          0 0 0 
          0 0 0 
          0 0 0 
          0 0 0 
          0 0 0 
          0 0 0 
          0 0 0 
          0 0 0 
          0 0 0 
          0 0 0 
          0 0 0 
          0 0 0 
          0 0 0 
          0 0 0 
          0 0 0 
          0 0 0 
          0 0 0 
          0 0 0 
          0 0 0 
          0 0 0 
          0 0 0 
          0 0 0 
          0 0 0 
          0 0 0 
          0 0 0 
          0 0 0 
          0 0 0 
          0 0 0 
          0 0 0 
          0 0 0 
          0 0 0 
          0 0 0 
          0 0 0 
          0 0 0 
          0 0 0 
          0 0 0 
          0 0 0 
          0 0 0 
          0 0 0 
          0 0 0 
          0 0 0 
          0 0 0 
          0 0 0 
          0 0 0 
          0 0 0 
          0 0 0 
          0 0 0 
          0 0 0 
          0 0 0 
          0 0 0 
          0 0 0 
          0 0 0 
          0 0 0 
          0 0 0 
          0 0 0 
          0 0 0 
          0 0 0 
          0 0 0 
          0 0 0 
          0 0 0 
          0 0 0 
          0 0 0 
          0 0 0 
          0 0 0 
          0 0 0 
          0 0 0 
          0 0 0 
          0 0 0 
          0 0 0 
          0 0 0 
          0 0 0 
          0 0 0 
          0 0 0 
          0 0 0 
          0 0 0 
          0 0 0 
          0 0 0 
          0 0 0 
          0 0 0 
          0 0 0 
          0 0 0 
          0 0 0 
          0 0 0 
          0 0 0 
          0 0 0 
          0 0 0 
          0 0 0 
          0 0 0 
          0 0 0 
          0 0 0 
          0 0 0 
          0 0 0 
          0 0 0 
          0 0 0 
          0 0 0 
          0 0 0 
          0 0 0 
          0 0 0 
          0 0 0 
          0 0 0 
          0 0 0 
          0 0 0 
          0 0 0 
          0 0 0 
          0 0 0 
          0 0 0 
          0 0 0 
          0 0 0 
          0 0 0 
          0 0 0 
          0 0 0 
          0 0 0 
          0 0 0 
          0 0 0 
          0 0 0 
          0 0 0 
          0 0 0 
          0 0 0 
          0 0 0 
          0 0 0 
          0 0 0 
          0 0 0 
          0 0 0 
          0 0 0 
          0 0 0 
          0 0 0 
          0 0 0 
          0 0 0 
          0 0 0 
          0 0 0 
          0 0 0 
          0 0 0 
          0 0 0 
          0 0 0 
          0 0 0 
          0 0 0 
          0 0 0 
          0 0 0 
          0 0 0 
          0 0 0 
          0 0 0 
          0 0 0 
          0 0 0 
          0 0 0 
          0 0 0 
          0 0 0 
          0 0 0 
        </DataArray>
        <DataArray type="Float64" Name="id" NumberOfComponents="1" Format="ascii">
          0 
          30 
          71 
          81 
          86 
          91 
          125 
          133 
          159 
          258 
          361 
          389 
          412 
          460 
          695 
          743 
          777 
          845 
          861 
          904 
          991 
          12 
          38 
          43 
          92 
          104 
          199 
          238 
          322 
          326 
          345 
          357 
          391 
          397 
          600 
          603 
          622 
          717 
          831 
          855 
          860 
          884 
          890 
          898 
          899 
          920 
          956 
          53 
          93 
          143 
          196 
          246 
          303 
          379 
          394 
          461 
          485 
          509 
          643 
          654 
          690 
          712 
          727 
          770 
          773 
          801 
          992 
          5 
          55 
          152 
          210 
          442 
          491 
          780 
          952 
          108 
          211 
          228 
          268 
          360 
          440 
          487 
          528 
          544 
          553 
          661 
          679 
          721 
          732 
          736 
          753 
          915 
          988 
          998 
          2 
          79 
          105 
          170 
          269 
          270 
          313 
          317 
          340 
          527 
          565 
          648 
          663 
          772 
          796 
          892 
          895 
          90 
          148 
          204 
          232 
          297 
          335 
          422 
          476 
          512 
          519 
          602 
          621 
          647 
          678 
          701 
          722 
          850 
          950 
          27 
          60 
          264 
          448 
          456 
          469 
          572 
          726 
          802 
          843 
          864 
          989 
          82 
          89 
          157 
          227 
          294 
          537 
          548 
          550 
          591 
          685 
          706 
          871 
          919 
          226 
          384 
          423 
          481 
          576 
          638 
          646 
          653 
          692 
          698 
          805 
          876 
          877 
          42 
          470 
          536 
          570 
          649 
          729 
          744 
          769 
          778 
          819 
          1 
          44 
          67 
          70 
          253 
          287 
          295 
          314 
          337 