<?xml version="1.0"?>
<VTKFile type="UnstructuredGrid" version="0.1" byte_order="LittleEndian">
  <UnstructuredGrid>
    <Piece NumberOfPoints="1000" NumberOfCells="1000">
      <Points>
        <DataArray name="Position" type="Float64" NumberOfComponents="3" Format="ascii">
          0.000324412 0.00399149 0.0
          0.0630759 0.0564789 0.0
          0.220438 0.0841409 0.0
          0.170064 0.0775096 0.0
          0.0660203 0.0455044 0.0
          0.244764 0.0101592 0.0
          0.0722686 0.0339995 0.0
          0.122194 0.0820941 0.0
          0.102032 0.0892657 0.0
          0.0693581 0.00987826 0.0
          0.211589 0.0561495 0.0
          0.144452 0.0581065 0.0
          0.00227393 0.0926434 0.0
          0.0457694 0.0789478 0.0
          0.177385 0.0189978 0.0
          0.154017 0.114035 0.0
          0.0621539 0.122908 0.0
          0.428287 0.0742568 0.0
          0.492527 0.089802 0.0
          0.395808 0.00196704 0.0
          0.439089 0.0991482 0.0
          0.392891 0.057159 0.0
          0.444244 0.0999258 0.0
          0.364959 0.0102815 0.0
          0.4509 0.0313858 0.0
          0.31827 0.00810272 0.0
          0.482598 0.0959594 0.0
          0.394805 0.0554142 0.0
          0.449639 0.0875423 0.0
          0.489078 0.00174195 0.0
          0.481095 0.0894762 0.0
          0.361109 0.0842159 0.0
          0.452888 0.0150596 0.0
          0.361937 0.0876871 0.0
          0.314433 0.0628427 0.0
          0.302238 0.101962 0.0
          0.3023 0.0259132 0.0
          0.284976 0.0713371 0.0
          0.264631 0.0370949 0.0
          0.262371 0.0975736 0.0
          0.257867 0.105482 0.0
          0.260098 0.10692 0.0
          0.293184 0.124432 0.0
          0.0720953 0.147051 0.0
          0.161489 0.169097 0.0
          0.243685 0.144269 0.0
          0.025433 0.165969 0.0
          0.00986293 0.138246 0.0
          0.204545 0.134397 0.0
          0.118271 0.177355 0.0
          0.24351 0.133591 0.0
          0.0497873 0.128332 0.0
          0.019553 0.193322 0.0
          0.00262276 0.20503 0.0
          0.0744599 0.207019 0.0
          0.179843 0.216042 0.0
          0.0342758 0.232343 0.0
          0.186451 0.235307 0.0
          0.194202 0.233416 0.0
          0.155114 0.241976 0.0
          0.0418413 0.248559 0.0
          0.351833 0.163272 0.0
          0.480133 0.21044 0.0
          0.321999 0.201434 0.0
          0.385251 0.127334 0.0
          0.360973 0.203084 0.0
          0.308943 0.127322 0.0
          0.297992 0.131544 0.0
          0.300949 0.180657 0.0
          0.339718 0.219866 0.0
          0.285365 0.167092 0.0
          0.381192 0.227907 0.0
          0.278804 0.225473 0.0
          0.275104 0.178063 0.0
          0.282954 0.237378 0.0
          0.257489 0.142005 0.0
          0.662714 0.0517739 0.0
          0.742011 0.0281546 0.0
          0.62758 0.00380617 0.0
          0.664324 0.0311179 0.0
          0.689509 0.0476939 0.0
          0.733411 0.0176348 0.0
          0.602831 0.0730087 0.0
          0.701259 0.116648 0.0
          0.581902 0.0800872 0.0
          0.581694 0.0070198 0.0
          0.583519 0.112165 0.0
          0.584008 0.0945179 0.0
          0.579562 0.00752173 0.0
          0.571441 0.0224152 0.0
          0.535109 0.11847 0.0
          0.531235 0.0644722 0.0
          0.526322 0.114977 0.0
          0.503367 0.0863782 0.0
          0.944361 0.0774258 0.0
          0.872743 0.0162446 0.0
          0.972411 0.00285309 0.0
          0.934498 0.0556416 0.0
          0.917992 0.0474567 0.0
          0.966706 0.0776441 0.0
          0.937595 0.0114161 0.0
          0.965181 0.0521159 0.0
          0.827859 0.100774 0.0
          0.822228 0.092932 0.0
          0.821929 0.059544 0.0
          0.819004 0.100502 0.0
          0.816023 0.104657 0.0
          0.7973 0.0259122 0.0
          0.788125 0.0592278 0.0
          0.783263 0.0358681 0.0
          0.772316 0.0745738 0.0
          0.717172 0.241704 0.0
          0.745946 0.23857 0.0
          0.615133 0.228749 0.0
          0.609939 0.188325 0.0
          0.741105 0.204206 0.0
          0.667551 0.209715 0.0
          0.663867 0.160639 0.0
          0.664445 0.210036 0.0
          0.706853 0.226465 0.0
          0.723559 0.242503 0.0
          0.583914 0.132337 0.0
          0.545306 0.244569 0.0
          0.51677 0.246216 0.0
          0.532909 0.245336 0.0
          0.506017 0.197057 0.0
          0.90799 0.175405 0.0
          0.947847 0.180546 0.0
          0.918949 0.168256 0.0
          0.835358 0.137535 0.0
          0.934252 0.135499 0.0
          0.922611 0.136119 0.0
          0.802114 0.211686 0.0
          0.808126 0.144533 0.0
          0.785185 0.168284 0.0
          0.993849 0.129552 0.0
          0.779387 0.131937 0.0
          0.766499 0.138117 0.0
          0.890926 0.125326 0.0
          0.160373 0.280785 0.0
          0.172379 0.304253 0.0
          0.225145 0.324552 0.0
          0.135132 0.341065 0.0
          0.0440382 0.340098 0.0
          0.126027 0.371545 0.0
          0.339528 0.282411 0.0
          0.477335 0.311834 0.0
          0.385137 0.310598 0.0
          0.426761 0.316089 0.0
          0.351646 0.299705 0.0
          0.316981 0.295466 0.0
          0.397944 0.33016 0.0
          0.369913 0.331759 0.0
          0.412842 0.34057 0.0
          0.497653 0.363416 0.0
          0.499459 0.3658 0.0
          0.281221 0.357906 0.0
          0.495258 0.368735 0.0
          0.254695 0.250048 0.0
          0.255015 0.312048 0.0
          0.262457 0.371882 0.0
          0.0402863 0.381469 0.0
          0.133028 0.400625 0.0
          0.0548734 0.389343 0.0
          0.166469 0.40129 0.0
          0.230092 0.420854 0.0
          0.0945805 0.424119 0.0
          0.197344 0.433557 0.0
          0.0683657 0.435082 0.0
          0.0981553 0.461283 0.0
          0.177451 0.476628 0.0
          0.155422 0.475462 0.0
          0.0630623 0.491263 0.0
          0.44258 0.44263 0.0
          0.385156 0.376669 0.0
          0.319572 0.416266 0.0
          0.4964 0.399655 0.0
          0.402786 0.437097 0.0
          0.389669 0.444052 0.0
          0.449593 0.471233 0.0
          0.387242 0.458857 0.0
          0.278979 0.388155 0.0
          0.296136 0.454128 0.0
          0.365776 0.48883 0.0
          0.29865 0.492004 0.0
          0.260893 0.492656 0.0
          0.693667 0.351277 0.0
          0.660865 0.312509 0.0
          0.72726 0.335196 0.0
          0.622932 0.362785 0.0
          0.667553 0.298082 0.0
          0.611529 0.317743 0.0
          0.613866 0.293286 0.0
          0.688197 0.334427 0.0
          0.631639 0.290194 0.0
          0.576952 0.277584 0.0
          0.523933 0.312748 0.0
          0.578395 0.370096 0.0
          0.839955 0.308444 0.0
          0.872867 0.337151 0.0
          0.867236 0.307322 0.0
          0.997246 0.315309 0.0
          0.880542 0.308836 0.0
          0.854488 0.356242 0.0
          0.920379 0.370408 0.0
          0.9796 0.300888 0.0
          0.865845 0.304468 0.0
          0.982406 0.299471 0.0
          0.887955 0.362637 0.0
          0.866234 0.282076 0.0
          0.914629 0.284051 0.0
          0.906457 0.278405 0.0
          0.974606 0.282438 0.0
          0.812888 0.353214 0.0
          0.839856 0.265271 0.0
          0.796558 0.316268 0.0
          0.789669 0.266181 0.0
          0.806558 0.251359 0.0
          0.774127 0.297917 0.0
          0.778506 0.268621 0.0
          0.780803 0.268739 0.0
          0.756692 0.324487 0.0
          0.712991 0.484151 0.0
          0.748981 0.430556 0.0
          0.672649 0.476431 0.0
          0.595901 0.437879 0.0
          0.676439 0.475093 0.0
          0.688119 0.41271 0.0
          0.731757 0.457708 0.0
          0.6763 0.405503 0.0
          0.612964 0.405722 0.0
          0.597289 0.41949 0.0
          0.622962 0.421669 0.0
          0.642791 0.490628 0.0
          0.633516 0.463951 0.0
          0.731974 0.406028 0.0
          0.567655 0.435465 0.0
          0.554127 0.387605 0.0
          0.515474 0.384742 0.0
          0.94571 0.454771 0.0
          0.917427 0.452871 0.0
          0.923178 0.455406 0.0
          0.876131 0.466159 0.0
          0.861715 0.457785 0.0
          0.952458 0.431493 0.0
          0.912461 0.431213 0.0
          0.91421 0.412874 0.0
          0.933712 0.417069 0.0
          0.972952 0.409748 0.0
          0.942729 0.399508 0.0
          0.991307 0.384883 0.0
          1.2465 0.00258932 0.0
          1.21479 0.016699 0.0
          1.22998 0.033035 0.0
          1.21452 0.0197299 0.0
          1.14854 0.0779312 0.0
          1.2437 0.00147102 0.0
          1.08432 0.123913 0.0
          1.18969 0.0959902 0.0
          1.15141 0.0981535 0.0
          1.17964 0.0202126 0.0
          1.0451 0.0162853 0.0
          1.03075 0.0488743 0.0
          1.01122 0.0685823 0.0
          1.01121 0.0970978 0.0
          1.26886 0.102839 0.0
          1.41976 0.0664215 0.0
          1.44268 0.0676242 0.0
          1.37604 0.028447 0.0
          1.33898 0.0313801 0.0
          1.32989 0.118434 0.0
          1.44467 0.0880628 0.0
          1.27738 0.0850288 0.0
          1.4096 0.0821394 0.0
          1.31454 0.0547178 0.0
          1.4836 0.0202146 0.0
          1.48401 0.00524296 0.0
          1.48944 0.0953352 0.0
          1.26498 0.0940755 0.0
          1.26076 0.0228376 0.0
          1.26275 0.0370042 0.0
          1.18516 0.200915 0.0
          1.17433 0.236232 0.0
          1.07438 0.191688 0.0
          1.22771 0.18793 0.0
          1.0664 0.189734 0.0
          1.22261 0.158272 0.0
          1.23923 0.161491 0.0
          1.1134 0.168002 0.0
          1.21695 0.15466 0.0
          1.06417 0.149537 0.0
          1.1108 0.135219 0.0
          1.10409 0.135258 0.0
          1.02873 0.152602 0.0
          1.12604 0.134 0.0
          1.1871 0.132278 0.0
          1.04091 0.130655 0.0
          1.24631 0.128152 0.0
          1.16236 0.12809 0.0
          1.45225 0.192981 0.0
          1.29081 0.194668 0.0
          1.44274 0.14541 0.0
          1.46291 0.15009 0.0
[...]
      <PointData Scalars="scalars">
        <DataArray type="Float64" Name="velocity" NumberOfComponents="3" Format="ascii">
          0.000295093 -0.0037391 0 
          0.0559816 -0.0520188 0 
          0.183642 -0.0671942 0 
          0.14465 -0.0659831 0 
          0.058581 -0.0418847 0 
          0.203426 -0.00787031 0 
          0.0640234 -0.0312294 0 
          0.105788 -0.072972 0 
          0.0889193 -0.0804295 0 
          0.0615564 -0.00909691 0 
          0.177588 -0.0455213 0 
          0.124371 -0.0507925 0 
          0.00205559 -0.0864134 0 
          0.040788 -0.0730778 0 
          0.151246 -0.016116 0 
          0.130973 -0.0984138 0 
          0.0546859 -0.112846 0 
          0.31486 -0.0374612 0 
          0.341433 -0.0360508 0 
          0.300702 -0.00110379 0 
          0.317927 -0.0481155 0 
          0.297824 -0.0320227 0 
          0.320206 -0.0476816 0 
          0.283455 -0.00623511 0 
          0.327598 -0.0148543 0 
          0.254837 -0.00546321 0 
          0.336921 -0.0400002 0 
          0.298928 -0.0308944 0 
          0.323768 -0.0411381 0 
          0.344441 -0.000722787 0 
          0.336964 -0.0375676 0 
          0.278664 -0.0509515 0 
          0.328863 -0.00710311 0 
          0.278919 -0.0529148 0 
          0.251183 -0.0423977 0 
          0.24132 -0.0701854 0 
          0.24417 -0.0180141 0 
          0.231216 -0.0510286 0 
          0.217836 -0.0276824 0 
          0.214276 -0.0726198 0 
          0.210677 -0.0790867 0 
          0.212202 -0.0798249 0 
          0.233909 -0.0869876 0 
          0.0628736 -0.134179 0 
          0.134912 -0.143966 0 
          0.198177 -0.110347 0 
          0.0224956 -0.153558 0 
          0.00882865 -0.128544 0 
          0.169598 -0.109228 0 
          0.100368 -0.156787 0 
          0.198694 -0.102376 0 
          0.0439701 -0.11833 0 
          0.0172133 -0.178542 0 
          0.00231766 -0.189528 0 
          0.0637525 -0.187355 0 
          0.146256 -0.178673 0 
          0.0296079 -0.212845 0 
          0.149709 -0.19223 0 
          0.155497 -0.188835 0 
          0.126039 -0.204733 0 
          0.0357962 -0.226688 0 
          0.266177 -0.0994293 0 
          0.316336 -0.084795 0 
          0.244015 -0.12984 0 
          0.288484 -0.0719208 0 
          0.265457 -0.119204 0 
          0.243942 -0.0861301 0 
          0.236558 -0.0909711 0 
          0.233869 -0.122729 0 
          0.251239 -0.135073 0 
          0.225276 -0.117643 0 
          0.271142 -0.125512 0 
          0.214479 -0.158129 0 
          0.217451 -0.127582 0 
          0.215459 -0.164415 0 
          0.208311 -0.10605 0 
          0.389625 -0.00724727 0 
          0.397263 -0.000635143 0 
          0.385644 -0.000745247 0 
          0.391067 -0.00430767 0 
          0.393093 -0.00476685 0 
          0.397395 -0.000624636 0 
          0.376845 -0.0167794 0 
          0.385773 -0.00935493 0 
          0.371078 -0.0209455 0 
          0.375165 -0.001873 0 
          0.367415 -0.0288008 0 
          0.369949 -0.0243172 0 
          0.374598 -0.00203175 0 
          0.372118 -0.00631682 0 
          0.352865 -0.0392276 0 
          0.357586 -0.0220307 0 
          0.350528 -0.039684 0 
          0.345865 -0.0331864 0 
          0.368699 0.0203536 0 
          0.388172 0.00270066 0 
          0.364586 0.000866956 0 
          0.373241 0.0139286 0 
          0.377816 0.0108235 0 
          0.362376 0.0227466 0 
          0.374454 0.00292597 0 
          0.365028 0.0152166 0 
          0.386872 0.0102102 0 
          0.388532 0.00868478 0 
          0.392333 0.0055618 0 
          0.387728 0.00892675 0 
          0.387342 0.00885116 0 
          0.396289 0.0015115 0 
          0.394649 0.00266047 0 
          0.396498 0.00135938 0 
          0.393624 0.00164749 0 
          0.351307 -0.012213 0 
          0.353216 -0.00279569 0 
          0.345528 -0.0446968 0 
          0.357237 -0.0393382 0 
          0.365658 -0.00401538 0 
          0.359309 -0.0256967 0 
          0.372946 -0.0212862 0 
          0.358859 -0.02666 0 
          0.356659 -0.0148979 0 
          0.351221 -0.0101335 0 
          0.364257 -0.0337021 0 
          0.325585 -0.0721284 0 
          0.317599 -0.0830379 0 
          0.322207 -0.0768481 0 
          0.32832 -0.071881 0 
          0.359691 0.0367227 0 
          0.349418 0.0473733 0 
          0.359229 0.0377937 0 
          0.37962 0.0153208 0 
          0.362796 0.0334855 0 
          0.365411 0.0314933 0 
          0.36198 0.0135512 0 
          0.380501 0.0105801 0 
          0.375933 0.00688731 0 
          0.34685 0.0423602 0 
          0.38454 0.00429987 0 
          0.383545 0.00197488 0 
          0.373905 0.0236247 0 
          0.127112 -0.23413 0 
          0.133488 -0.248428 0 
          0.165859 -0.243106 0 
          0.103984 -0.287065 0 
          0.035923 -0.304632 0 
          0.0950149 -0.312563 0 
          0.238879 -0.168667 0 
          0.282549 -0.118037 0 
          0.251828 -0.161116 0 
          0.265456 -0.14344 0 
          0.240412 -0.171749 0 
          0.224384 -0.184994 0 
          0.250141 -0.162293 0 
          0.238793 -0.176827 0 
          0.2514 -0.158286 0 
          0.26244 -0.119207 0 
          0.261458 -0.118656 0 
          0.191001 -0.23448 0 
          0.259105 -0.121477 0 
          0.195849 -0.182577 0 
          0.186549 -0.222062 0 
          0.17813 -0.252083 0 
          0.0320418 -0.338866 0 
          0.0968592 -0.331147 0 
          0.0429275 -0.342961 0 
          0.117777 -0.31847 0 
          0.149278 -0.296505 0 
          0.0693206 -0.360116 0 
          0.129457 -0.322449 0 
          0.0506971 -0.374922 0 
          0.0684516 -0.384677 0 
          0.109944 -0.356767 0 
          0.0992045 -0.368509 0 
          0.0439388 -0.415852 0 
          0.205071 -0.16355 0 
          0.227605 -0.184644 0 
          0.188715 -0.236668 0 
          0.240957 -0.125662 0 
          0.201724 -0.188329 0 
          0.194863 -0.198026 0 
          0.185035 -0.161175 0 
          0.185398 -0.201919 0 
          0.181828 -0.250533 0 
          0.1649 -0.264331 0 
          0.162621 -0.220738 0 
          0.147847 -0.272059 0 
          0.13798 -0.302362 0 
          0.292598 -0.0247495 0 
          0.314041 -0.0370073 0 
          0.304018 -0.0102055 0 
          0.280071 -0.0573134 0 
          0.322357 -0.0333106 0 
          0.305837 -0.0583791 0 
          0.318738 -0.0545116 0 
          0.303095 -0.0266148 0 
          0.322599 -0.0469766 0 
          0.319839 -0.0670223 0 
          0.293264 -0.0963338 0 
          0.270551 -0.0792994 0 
          0.317141 0.033955 0 
          0.297799 0.0501028 0 
          0.315235 0.0445187 0 
          0.288795 0.0975744 0 
          0.312927 0.0499178 0 
          0.287416 0.0440981 0 
          0.271822 0.0748733 0 
          0.299558 0.0871206 0 
          0.316889 0.0436534 0 
          0.299543 0.0878648 0 
          0.280392 0.0593897 0 
          0.328006 0.0411706 0 
          0.320223 0.0591933 0 
          0.324123 0.0552563 0 
          0.308755 0.0808232 0 
          0.291693 0.0259872 0 
          0.33838 0.0299085 0 
          0.315111 0.0173648 0 
          0.34104 0.0124675 0 
          0.346717 0.0174255 0 
          0.325754 0.0079476 0 
          0.340214 0.00864341 0 
          0.340114 0.00945737 0 
          0.310757 0.00171432 0 
          0.177103 -0.0152873 0 
          0.231537 0.000179986 0 
          0.185156 -0.0349032 0 
          0.220612 -0.0743767 0 
          0.186619 -0.0330766 0 
          0.246472 -0.0281461 0 
          0.20523 -0.00716273 0 
          0.252082 -0.0337071 0 
          0.24845 -0.0646424 0 
          0.236321 -0.0731553 0 
          0.236061 -0.0601136 0 
          0.169575 -0.0494062 0 
          0.197433 -0.0548462 0 
          0.252961 -0.00789144 0 
          0.221097 -0.0893071 0 
          0.256163 -0.0932726 0 
          0.252936 -0.113031 0 
          0.205811 0.0964222 0 
          0.208776 0.0816691 0 
          0.206265 0.0847771 0 
          0.197349 0.0613571 0 
          0.2057 0.0538979 0 
          0.224725 0.0978278 0 
          0.227803 0.077647 0 
          0.242446 0.0769154 0 
          0.237584 0.0869035 0 
          0.238912 0.105465 0 
          0.249642 0.0892434 0 
          0.252626 0.110252 0 
          0.233968 0.00151587 0 
          0.253087 0.00943177 0 
          0.243591 0.0189945 0 
          0.253193 0.0111392 0 
          0.286827 0.0397049 0 
          0.235712 0.000858723 0 
          0.312568 0.0547162 0 
          0.263027 0.0522884 0 
          0.283471 0.0502143 0 
          0.273115 0.0108763 0 
          0.337957 0.00650178 0 
          0.342466 0.0185445 0 
          0.348503 0.0241766 0 
          0.34555 0.0341056 0 
          0.214396 0.0614589 0 
          0.123654 0.0390016 0 
          0.109947 0.0387139 0 
          0.152022 0.0171902 0 
          0.174754 0.0191534 0 
          0.173703 0.0725731 0 
          0.106939 0.0503603 0 
          0.210568 0.0511002 0 
          0.128451 0.0487267 0 
          0.189029 0.0333729 0 
          0.0885909 0.0108256 0 
          0.0885913 0.00280233 0 
          0.0799272 0.0507765 0 
          0.217766 0.0560481 0 
          0.224654 0.0135511 0 
          0.222942 0.0219942 0 
          0.249653 0.108019 0 
          0.247472 0.124202 0 
          0.30451 0.0815398 0 
          0.227918 0.107504 0 
          0.308202 0.078942 0 
          0.236051 0.0900522 0 
          0.225508 0.0937606 0 
          0.292245 0.0791444 0 
          0.23996 0.0873659 0 
          0.317169 0.0623251 0 
          0.298907 0.0635845 0 
          0.302021 0.062634 0 
          0.330512 0.05677 0 
          0.291809 0.0651279 0 
          0.26025 0.0716966 0 
          0.32964 0.0508263 0 
          0.22591 0.0750105 0 
          0.274205 0.0667116 0 
          0.0855677 0.110369 0 
          0.186703 0.118303 0 
          0.100402 0.0837032 0 
          0.08751 0.0840484 0 
          0.167194 0.108162 0 
          0.127531 0.109973 0 
          0.118447 0.0927073 0 
          0.126269 0.130078 0 
          0.0565089 0.135464 0 
          0.143526 0.0858777 0 
          0.199626 0.0820365 0 
          0.212458 0.087097 0 
          0.201944 0.0764456 0 
          0.215134 0.107608 0 
          0.210129 0.111907 0 
          0.044038 0.0331573 0 
          0.0161637 0.0203007 0 
          0.0291559 0.0410794 0 
          0.00701242 0.0124712 0 
          0.00562684 0.0135948 0 
          0.048222 0.0290959 0 
          0.0695034 0.01705 0 
          0.0568004 0.0554149 0 
          0.0362202 0.0259652 0 
          -0.00735639 0.0244933 0 
          -0.00767621 0.0242712 0 
          -0.0113128 0.000302721 0 
          -0.0131882 -0.000841275 0 
          -0.0105227 -0.00812049 0 
          -0.0137894 0.00161911 0 
          -0.00970683 0.0013133 0 
          -0.0106278 0.00110634 0 
          -0.0152378 -0.000676795 0 
          -0.00095192 -0.001397 0 
          -0.0121922 -0.000788671 0 
          -0.0142913 0.0034655 0 
          -0.00460906 -0.00796796 0 
          -0.0129931 -0.000846834 0 
          -0.00774738 -0.00545055 0 
          -0.0119342 0.00999428 0 
          -0.00897142 0.00438867 0 
          -0.00218939 -0.00239815 0 
          -0.0113587 -0.0106316 0 
          -0.00772314 -0.0135032 0 
          0.0188542 0.10022 0 
          -0.00383166 0.0988721 0 
          0.0100871 0.0550616 0 
          0.0313884 0.0941093 0 
          0.0111779 0.0854023 0 
          -0.0278774 0.0445379 0 
          0.0397326 0.0617431 0 
          -0.00452275 0.0973272 0 
          -0.0195311 0.0295386 0 
          -0.0189121 0.0832895 0 
          -0.0352123 0.0441976 0 
          -0.0299609 0.060084 0 
          -0.0174806 0.0189236 0 
          -0.00736385 -0.0181544 0 
          -0.00555783 -0.0212183 0 
          -0.00583512 -0.016358 0 
          -0.0151367 -0.0104456 0 
          -0.0230959 -0.0121159 0 
          -0.0154073 -0.0140517 0 
          -0.0284699 0.00324531 0 
          -0.0171818 0.0122823 0 
          -0.0339773 0.00540827 0 
          -0.0232163 -0.0091562 0 
          -0.0282564 -0.0106672 0 
          -0.0285603 -0.023357 0 
          -0.0372161 -0.0106447 0 
          -0.0212937 -0.0351001 0 
          -0.0210986 -0.0343682 0 
          -0.0151103 -0.0387511 0 
          -0.0253488 -0.0325188 0 
          0.247869 0.147468 0 
          0.243817 0.150949 0 
          0.226112 0.168239 0 
          0.199331 0.193372 0 
          0.245001 0.150254 0 
          0.239354 0.155663 0 
          0.279038 0.113716 0 
          0.235793 0.147055 0 
          0.293855 0.101564 0 
          0.233629 0.145371 0 
          0.267268 0.12445 0 
          0.283508 0.108722 0 
          0.288953 0.105218 0 
          0.276453 0.116837 0 
          0.301335 0.0933857 0 
          0.275392 0.114902 0 
          0.20151 0.14861 0 
          0.105163 0.199268 0 
          0.0750958 0.168918 0 
          0.0739866 0.170732 0 
          0.0770457 0.185907 0 
          0.0548988 0.214406 0 
          0.0492782 0.187831 0 
          0.110404 0.203059 0 
          0.0969435 0.195313 0 
          0.0348262 0.194979 0 
          0.0419935 0.162681 0 
          0.0699177 0.159653 0 
          0.16553 0.168006 0 
          0.170025 0.199165 0 
          0.170748 0.204833 0 
          0.180721 0.160557 0 
          0.186051 0.154365 0 
          0.144469 0.234926 0 
          0.143914 0.248957 0 
          0.126116 0.264713 0 
          0.131583 0.26327 0 
          0.208461 0.156906 0 
          0.175598 0.218232 0 
          0.158069 0.233812 0 
          0.159474 0.232057 0 
          0.166566 0.138745 0 
          0.220048 0.168456 0 
          0.196986 0.196912 0 
          0.192603 0.132917 0 
          0.245187 0.136586 0 
          0.164009 0.219683 0 
          0.100275 0.287956 0 
          0.0371738 0.299548 0 
          0.0847563 0.286051 0 
          0.112019 0.284094 0 
          0.046514 0.313129 0 
          0.0346831 0.310422 0 
          0.0230289 0.257903 0 
          0.115904 0.280064 0 
          -0.00501555 0.275801 0 
          0.0435398 0.265254 0 
          -0.0302416 0.279646 0 
          -0.0239111 0.253724 0 
          -0.0169008 0.242588 0 
          0.0718319 0.249518 0 
          0.134812 0.258439 0 
          0.127963 0.234309 0 
          0.0104403 0.212905 0 
          0.114507 0.281786 0 
          0.0100989 0.141673 0 
          -0.0207216 0.0940828 0 
          -0.0371216 0.0663076 0 
          -0.0561356 0.104322 0 
          -0.0631732 0.0853626 0 
          -0.0113958 0.132581 0 
          0.0264312 0.154643 0 
          0.0057875 0.173455 0 
          -0.0451485 0.0502154 0 
          0.0043538 0.163143 0 
          -0.0577936 0.08526 0 
          -0.0485535 0.155899 0 
          0.00647018 0.143503 0 
          -0.0462275 0.043538 0 
          -0.0593512 0.049734 0 
          -0.0791124 0.0477999 0 
          -0.025062 0.0764539 0 
          -0.0633481 0.0117158 0 
          -0.00389032 -0.0440167 0 
          -0.0587793 -0.00555451 0 
          -0.0526507 -0.0250424 0 
          -0.0460235 0.00187461 0 
          -0.0471748 -0.0344298 0 
          -0.0206153 -0.0482816 0 
          -0.0435042 -0.0426309 0 
          -0.0373149 -0.0260401 0 
          -0.0575797 -0.00739023 0 
          -0.0457047 -0.025105 0 
          -0.0201914 -0.0493311 0 
          -0.0655127 -0.0102161 0 
          -0.0322661 -0.0590801 0 
          -0.0681104 0.00188631 0 
          -0.0221946 -0.0702683 0 
          -0.063128 -0.0472271 0 
          -0.0539035 -0.0690542 0 
          -0.0865824 0.138347 0 
          -0.0401785 0.259682 0 
          -0.05146 0.271253 0 
          -0.084041 0.14796 0 
          -0.0346635 0.250833 0 
          -0.0547736 0.241055 0 
          -0.0554982 0.25524 0 
          -0.0801828 0.163617 0 
          -0.143422 0.0448038 0 
          -0.01999 0.197136 0 
          -0.0506063 0.159157 0 
          -0.0229042 -0.101498 0 
          -0.0726086 -0.0724732 0 
          -0.0287254 -0.095323 0 
          -0.0808222 -0.0709011 0 
          -0.108842 -0.0172594 0 
          -0.0247447 -0.0984859 0 
          -0.0968771 0.0101325 0 
          -0.0992086 -0.0455894 0 
          -0.11155 -0.0356206 0 
          -0.089978 -0.0825481 0 
          -0.123469 -0.0183446 0 
          -0.0564641 -0.122517 0 
          -0.0379659 -0.132411 0 
          -0.0739423 -0.129595 0 
          -0.027363 -0.167301 0 
          -0.0622153 -0.154943 0 
          -0.105453 -0.108357 0 
          -0.101743 -0.118862 0 
          0.125992 -0.322433 0 
          0.127838 -0.32219 0 
          0.112802 -0.346014 0 
          0.0921961 -0.389001 0 
          0.0314357 -0.442033 0 
          0.0107083 -0.455169 0 
          0.0903811 -0.348644 0 
          0.0611872 -0.437181 0 
          0.0531441 -0.446446 0 
          0.0756369 -0.373423 0 
          0.0707113 -0.402892 0 
          0.0641793 -0.432186 0 
          0.0722121 -0.397272 0 
          0.0730751 -0.39469 0 
          0.0345579 -0.48178 0 
          0.0628765 -0.394946 0 
          0.0486642 -0.46668 0 
          0.149105 -0.195523 0 
          0.135663 -0.267319 0 
          0.118061 -0.224584 0 
          0.12374 -0.170045 0 
          0.0848073 -0.123163 0 
          0.141778 -0.167243 0 
          0.148642 -0.239714 0 
          0.0685588 -0.150897 0 
          0.150555 -0.242798 0 
          0.0832051 -0.133685 0 
          0.117 -0.133747 0 
          0.0535128 -0.120173 0 
          0.0684958 -0.164 0 
          0.0402833 -0.122123 0 
          0.0916987 -0.242699 0 
          0.0386512 -0.130895 0 
          0.11709 -0.310059 0 
          0.03196 -0.130325 0 
          0.0526021 -0.178523 0 
          0.0844597 -0.324222 0 
          0.045285 -0.231233 0 
          0.0453983 -0.430891 0 
          -0.00240168 -0.338277 0 
          -0.0104114 -0.3151 0 
          0.0253781 -0.474328 0 
          0.0099953 -0.538731 0 
          0.0277647 -0.450755 0 
          0.00126183 -0.392129 0 
          0.0204897 -0.4753 0 
          -0.0344663 -0.338501 0 
          0.0113843 -0.467177 0 
          0.0134298 -0.49489 0 
          0.0221319 -0.181696 0 
          -0.0389168 -0.17145 0 
          -0.0494174 -0.130263 0 
          -0.00915715 -0.211188 0 
          0.0195649 -0.189273 0 
          -0.0304017 -0.168918 0 
          0.00966871 -0.212002 0 
          -0.0498392 -0.202245 0 
          -0.0705274 -0.130142 0 
          -0.0418027 -0.152762 0 
          -0.0131268 -0.12943 0 
          0.0410957 -0.239101 0 
          -0.0276773 -0.166111 0 
          -0.030931 -0.157998 0 
          0.0135528 -0.159079 0 
          -0.0666775 -0.186718 0 
          -0.00785981 -0.217504 0 
          -0.0466298 -0.216633 0 
          0.00352005 -0.291389 0 
          -0.13759 -0.130529 0 
          -0.139405 -0.0930034 0 
          -0.0240662 -0.267019 0 
          -0.164384 -0.115666 0 
          -0.188129 -0.101032 0 
          -0.120449 -0.188496 0 
          0.0510349 -0.0931186 0 
          0.0581369 -0.0283261 0 
          0.0301348 -0.0381292 0 
          0.0373182 -0.0335954 0 
          0.11414 -0.0526307 0 
          0.151688 -0.0678617 0 
          0.0225904 -0.0821186 0 
          0.00563629 -0.0458065 0 
          0.1569 -0.0641274 0 
          0.0200828 0.00241319 0 
          0.071197 -0.0103583 0 
          0.130964 -0.0158886 0 
          0.145481 -0.0524057 0 
          0.0680177 -0.0394198 0 
          0.0473816 -0.10831 0 
          0.016654 0.047716 0 
          0.0774971 0.0561229 0 
          0.0248208 0.0366942 0 
          0.0711178 0.0895616 0 
          0.0936973 0.100027 0 
          0.115369 0.0454467 0 
          0.123196 0.106405 0 
          0.10578 0.0131028 0 
          0.0367704 0.00683332 0 
          0.110611 0.0107013 0 
          -0.174459 -0.044269 0 
          -0.171014 -0.0119675 0 
          -0.0597626 -0.0341441 0 
          -0.243713 -0.042503 0 
          -0.103721 -0.0190657 0 
          -0.0709965 -0.0893617 0 