<?xml version="1.0"?>
<VTKFile type="UnstructuredGrid" version="0.1" byte_order="LittleEndian">
  <UnstructuredGrid>
    <Piece NumberOfPoints="1000" NumberOfCells="1000">
      <Points>
        <DataArray name="Position" type="Float64" NumberOfComponents="3" Format="ascii">
          0.188956 0.0470863 0.0
          0.161592 0.0827353 0.0
          0.104509 0.0302199 0.0
          0.0663922 0.0378594 0.0
          0.0922188 0.0508366 0.0
          0.082923 0.0565895 0.0
          0.162227 0.0738786 0.0
          0.0735553 0.0809631 0.0
          0.182902 0.0730132 0.0
          0.0659203 0.0996874 0.0
          0.188933 0.103059 0.0
          0.0828197 0.100522 0.0
          0.107461 0.106036 0.0
          0.124014 0.116503 0.0
          0.0511415 0.117968 0.0
          0.239515 0.120985 0.0
          0.363476 0.040429 0.0
          0.428495 0.0275172 0.0
          0.329767 0.0651689 0.0
          0.455356 0.0477132 0.0
          0.480307 0.0223364 0.0
          0.486005 0.000248496 0.0
          0.457978 0.0550945 0.0
          0.333471 0.00317927 0.0
          0.419956 0.082782 0.0
          0.316852 0.0140618 0.0
          0.339362 0.105323 0.0
          0.42306 0.114037 0.0
          0.281136 0.0377113 0.0
          0.107797 0.138226 0.0
          0.0139057 0.174315 0.0
          0.131591 0.140489 0.0
          0.243551 0.139094 0.0
          0.0629722 0.152731 0.0
          0.139816 0.170551 0.0
          0.235033 0.148416 0.0
          0.146871 0.142914 0.0
          0.0534117 0.154825 0.0
          0.0021436 0.143625 0.0
          0.093861 0.178324 0.0
          0.151261 0.170785 0.0
          0.179837 0.133406 0.0
          0.0899377 0.201265 0.0
          0.151444 0.213228 0.0
          0.19783 0.21203 0.0
          0.172766 0.231167 0.0
          0.178473 0.241127 0.0
          0.240214 0.249961 0.0
          0.074305 0.247248 0.0
          0.359743 0.202065 0.0
          0.358417 0.211613 0.0
          0.449156 0.137223 0.0
          0.44502 0.164133 0.0
          0.436969 0.179249 0.0
          0.486851 0.193676 0.0
          0.327335 0.128442 0.0
          0.402124 0.220797 0.0
          0.29839 0.208702 0.0
          0.445544 0.228546 0.0
          0.292889 0.13855 0.0
          0.356539 0.236409 0.0
          0.266722 0.159546 0.0
          0.334712 0.237974 0.0
          0.411772 0.248384 0.0
          0.635798 0.0504674 0.0
          0.726857 0.110142 0.0
          0.666626 0.104712 0.0
          0.668718 0.115344 0.0
          0.686631 0.03113 0.0
          0.653118 0.0815705 0.0
          0.677392 0.05706 0.0
          0.598011 0.0915583 0.0
          0.668302 0.110336 0.0
          0.687838 0.088498 0.0
          0.595382 0.0182807 0.0
          0.59629 0.0198204 0.0
          0.57494 0.0682647 0.0
          0.545772 0.0727521 0.0
          0.546584 0.018545 0.0
          0.536237 0.0840759 0.0
          0.518661 0.00566162 0.0
          0.511099 0.0931055 0.0
          0.976935 0.00241668 0.0
          0.869961 0.0663408 0.0
          0.931522 0.0451744 0.0
          0.881106 0.10425 0.0
          0.87854 0.0551789 0.0
          0.940771 0.0275502 0.0
          0.898266 0.114989 0.0
          0.866843 0.0680346 0.0
          0.943885 0.0830568 0.0
          0.918035 0.108127 0.0
          0.993479 0.0328613 0.0
          0.854636 0.103208 0.0
          0.797071 0.0144427 0.0
          0.791729 0.0799846 0.0
          0.789395 0.0117575 0.0
          0.771511 0.0548867 0.0
          0.762508 0.117572 0.0
          0.753794 0.0581015 0.0
          0.647652 0.137926 0.0
          0.62968 0.239126 0.0
          0.646128 0.235293 0.0
          0.650775 0.237917 0.0
          0.626275 0.189099 0.0
          0.626356 0.143498 0.0
          0.604748 0.16927 0.0
          0.687658 0.128131 0.0
          0.725924 0.21017 0.0
          0.739818 0.154778 0.0
          0.562049 0.209747 0.0
          0.547531 0.190863 0.0
          0.516461 0.217108 0.0
          0.953886 0.205201 0.0
          0.973294 0.159793 0.0
          0.955671 0.244514 0.0
          0.952141 0.183251 0.0
          0.863654 0.221927 0.0
          0.97124 0.240082 0.0
          0.979103 0.236363 0.0
          0.926912 0.241578 0.0
          0.873849 0.201606 0.0
          0.832805 0.196084 0.0
          0.826758 0.133832 0.0
          0.783594 0.249026 0.0
          0.790419 0.148862 0.0
          0.772627 0.169928 0.0
          0.901868 0.125424 0.0
          0.753575 0.200604 0.0
          0.0267872 0.282957 0.0
          0.152718 0.273184 0.0
          0.023487 0.277301 0.0
          0.106687 0.269187 0.0
          0.0634282 0.251307 0.0
          0.0146225 0.250115 0.0
          0.223769 0.293147 0.0
          0.120673 0.250681 0.0
          0.185541 0.268524 0.0
          0.133745 0.299771 0.0
          0.23594 0.312745 0.0
          0.193905 0.310632 0.0
          0.0886327 0.316221 0.0
          0.206912 0.335817 0.0
          0.149426 0.333085 0.0
          0.139558 0.331355 0.0
          0.235114 0.34681 0.0
          0.24946 0.348284 0.0
          0.135083 0.353701 0.0
          0.218322 0.362071 0.0
          0.0338942 0.356422 0.0
          0.125574 0.370218 0.0
          0.459736 0.324322 0.0
          0.358499 0.302359 0.0
          0.474653 0.261862 0.0
          0.38119 0.276869 0.0
          0.465648 0.251996 0.0
          0.337787 0.263658 0.0
          0.347553 0.268989 0.0
          0.43457 0.339055 0.0
          0.283231 0.257516 0.0
          0.272448 0.260035 0.0
          0.26409 0.308875 0.0
          0.327145 0.358386 0.0
          0.314773 0.365633 0.0
          0.447647 0.36743 0.0
          0.496962 0.372128 0.0
          0.451663 0.373774 0.0
          0.316126 0.37042 0.0
          0.000964331 0.375945 0.0
          0.078134 0.376115 0.0
          0.159876 0.401945 0.0
          0.0566956 0.3923 0.0
          0.0918872 0.395191 0.0
          0.127319 0.408719 0.0
          0.0915305 0.413571 0.0
          0.144962 0.426646 0.0
          0.0567482 0.419835 0.0
          0.208983 0.449804 0.0
          0.0762635 0.449863 0.0
          0.0921239 0.445532 0.0
          0.24435 0.476939 0.0
          0.200756 0.478446 0.0
          0.104546 0.47812 0.0
          0.0799918 0.487563 0.0
          0.190605 0.490858 0.0
          0.203732 0.499021 0.0
          0.173284 0.492278 0.0
          0.116705 0.494851 0.0
          0.0845367 0.495916 0.0
          0.371599 0.400635 0.0
          0.420288 0.423497 0.0
          0.427532 0.391427 0.0
          0.409968 0.393615 0.0
          0.47352 0.411541 0.0
          0.472952 0.382557 0.0
          0.413128 0.377659 0.0
          0.447358 0.458305 0.0
          0.307485 0.436191 0.0
          0.298573 0.458458 0.0
          0.375741 0.464658 0.0
          0.33704 0.481869 0.0
          0.354953 0.490977 0.0
          0.293688 0.484719 0.0
          0.666615 0.279326 0.0
          0.689548 0.305863 0.0
          0.668103 0.347154 0.0
          0.594151 0.298193 0.0
          0.626085 0.299331 0.0
          0.721714 0.354457 0.0
          0.663928 0.266641 0.0
          0.638261 0.315439 0.0
          0.738803 0.290248 0.0
          0.645149 0.259304 0.0
          0.615573 0.287998 0.0
          0.599331 0.346025 0.0
          0.561681 0.316173 0.0
          0.569303 0.27802 0.0
          0.570091 0.298982 0.0
          0.561093 0.316885 0.0
          0.556652 0.274666 0.0
          0.545601 0.284323 0.0
          0.519423 0.303931 0.0
          0.867675 0.370802 0.0
          0.833893 0.301165 0.0
          0.93214 0.324315 0.0
          0.872442 0.366819 0.0
          0.854618 0.318736 0.0
          0.870177 0.279098 0.0
          0.922788 0.290119 0.0
          0.991114 0.288688 0.0
          0.815947 0.350248 0.0
          0.768607 0.25485 0.0
          0.927472 0.250159 0.0
          0.750032 0.334054 0.0
          0.754608 0.343397 0.0
          0.586252 0.405724 0.0
          0.644322 0.450785 0.0
          0.577579 0.434802 0.0
          0.571868 0.482802 0.0
          0.586757 0.46671 0.0
          0.658731 0.423762 0.0
          0.72518 0.461387 0.0
          0.638868 0.477951 0.0
          0.568748 0.393826 0.0
          0.747924 0.382246 0.0
          0.535668 0.37913 0.0
          0.521687 0.453333 0.0
          0.50793 0.429015 0.0
          0.943775 0.462424 0.0
          0.872942 0.47939 0.0
          0.992378 0.497337 0.0
          0.997381 0.494841 0.0
          0.902534 0.491413 0.0
          0.986865 0.473096 0.0
          0.845274 0.47135 0.0
          0.860584 0.418223 0.0
          0.814774 0.434929 0.0
          0.811852 0.418169 0.0
          0.809317 0.467985 0.0
          0.979308 0.421379 0.0
          0.903808 0.406592 0.0
          0.977248 0.405351 0.0
          0.779757 0.491162 0.0
          0.990129 0.39418 0.0
          0.963745 0.383975 0.0
          0.925027 0.379316 0.0
          0.760517 0.437878 0.0
          0.755436 0.416905 0.0
          1.09636 0.0759071 0.0
          1.1244 0.0747359 0.0
          1.06696 0.0225519 0.0
          1.078 0.0958219 0.0
          1.11075 0.0240135 0.0
          1.14761 0.103384 0.0
          1.15384 0.0206388 0.0
          1.06508 0.0875571 0.0
          1.07989 0.0286959 0.0
          1.15957 0.066949 0.0
          1.18172 0.0673829 0.0
          1.09754 0.0390741 0.0
          1.04637 0.0787712 0.0
          1.02025 0.120737 0.0
          1.02074 0.0344624 0.0
          1.00414 0.0609691 0.0
          1.34692 0.0348316 0.0
          1.45477 0.103248 0.0
          1.38375 0.122915 0.0
          1.27106 0.0664818 0.0
          1.33316 0.0168328 0.0
          1.29704 0.113651 0.0
          1.41963 0.0172131 0.0
          1.31955 0.116257 0.0
          1.46616 0.041707 0.0
          1.41655 0.0168145 0.0
          1.49148 0.0202816 0.0
          1.25507 0.00841524 0.0
          1.243 0.241945 0.0
          1.11697 0.167534 0.0
          1.23334 0.24098 0.0
          1.14794 0.176841 0.0
          1.15103 0.16305 0.0
          1.12603 0.223569 0.0
          1.15691 0.239244 0.0
[...]
      <PointData Scalars="scalars">
        <DataArray type="Float64" Name="velocity" NumberOfComponents="3" Format="ascii">
          0.160128 -0.039329 0 
          0.137788 -0.0710281 0 
          0.0915191 -0.0272811 0 
          0.0589309 -0.0348567 0 
          0.0810148 -0.0461787 0 
          0.0730626 -0.0516475 0 
          0.138472 -0.0634249 0 
          0.0648646 -0.0741333 0 
          0.154899 -0.0612937 0 
          0.0581462 -0.0914965 0 
          0.158813 -0.0856918 0 
          0.0725783 -0.0915233 0 
          0.0932033 -0.0951066 0 
          0.106659 -0.103188 0 
          0.0452268 -0.108787 0 
          0.196431 -0.09347 0 
          0.282045 -0.0244899 0 
          0.317134 -0.0139968 0 
          0.260837 -0.0425233 0 
          0.328981 -0.0221733 0 
          0.34062 -0.00954396 0 
          0.3432 -0.00010438 0 
          0.329771 -0.0253371 0 
          0.264513 -0.002076 0 
          0.310195 -0.0427571 0 
          0.253883 -0.0095017 0 
          0.264435 -0.0668595 0 
          0.308917 -0.0580045 0 
          0.229522 -0.0272872 0 
          0.0928726 -0.123677 0 
          0.0123317 -0.16147 0 
          0.112233 -0.123444 0 
          0.1984 -0.106501 0 
          0.055044 -0.13985 0 
          0.117831 -0.148253 0 
          0.191591 -0.115074 0 
          0.124414 -0.123868 0 
          0.0468422 -0.142267 0 
          0.00192256 -0.133591 0 
          0.0804536 -0.160268 0 
          0.126849 -0.146873 0 
          0.150674 -0.111839 0 
          0.0766393 -0.180757 0 
          0.124954 -0.182063 0 
          0.159834 -0.171503 0 
          0.139945 -0.19221 0 
          0.143424 -0.198714 0 
          0.186128 -0.187485 0 
          0.0626316 -0.222498 0 
          0.264972 -0.119023 0 
          0.262678 -0.124584 0 
          0.318073 -0.0638948 0 
          0.312203 -0.076768 0 
          0.3061 -0.0855408 0 
          0.322678 -0.0766978 0 
          0.255345 -0.0834856 0 
          0.282444 -0.115023 0 
          0.228873 -0.141301 0 
          0.299059 -0.103431 0 
          0.232682 -0.0966968 0 
          0.257194 -0.138381 0 
          0.213439 -0.116703 0 
          0.245387 -0.14688 0 
          0.280437 -0.123996 0 
          0.385443 -0.00912415 0 
          0.388353 -0.00474812 0 
          0.384173 -0.0137963 0 
          0.382739 -0.0147829 0 
          0.393749 -0.00326309 0 
          0.385393 -0.0124834 0 
          0.391081 -0.00671711 0 
          0.373684 -0.021608 0 
          0.383508 -0.0142344 0 
          0.388862 -0.0089353 0 
          0.378438 -0.00447459 0 
          0.378619 -0.0048216 0 
          0.370401 -0.0186455 0 
          0.361568 -0.0231508 0 
          0.364857 -0.00595574 0 
          0.357465 -0.0279326 0 
          0.355659 -0.00207493 0 
          0.34799 -0.0345423 0 
          0.363164 0.000749086 0 
          0.385661 0.0106815 0 
          0.374713 0.0111432 0 
          0.379136 0.0182993 0 
          0.385209 0.00956077 0 
          0.373204 0.00716234 0 
          0.374286 0.0228656 0 
          0.385988 0.0106552 0 
          0.36821 0.0217626 0 
          0.371215 0.0244433 0 
          0.357041 0.0108659 0 
          0.383375 0.0143273 0 
          0.396637 0.000838822 0 
          0.392324 0.00400575 0 
          0.397082 0.000551571 0 
          0.395551 0.00114318 0 
          0.38754 0.000978574 0 
          0.395456 -0.000286552 0 
          0.37573 -0.0218205 0 
          0.344089 -0.0413532 0 
          0.347781 -0.035302 0 
          0.347382 -0.0340491 0 
          0.359945 -0.0349243 0 
          0.371087 -0.0271972 0 
          0.361174 -0.03709 0 
          0.382539 -0.0127727 0 
          0.363296 -0.00849068 0 
          0.379772 -0.00359757 0 
          0.340708 -0.0580557 0 
          0.342168 -0.0576622 0 
          0.326287 -0.0747362 0 
          0.341102 0.0550215 0 
          0.347443 0.0476068 0 
          0.327867 0.0651284 0 
          0.347632 0.0490879 0 
          0.352773 0.0325469 0 
          0.325576 0.0689554 0 
          0.324761 0.0704177 0 
          0.335223 0.0553095 0 
          0.358097 0.0325766 0 
          0.364795 0.0208284 0 
          0.381229 0.0133076 0 
          0.348613 0.00966849 0 
          0.38052 0.0071863 0 
          0.375837 0.00396625 0 
          0.37179 0.0255216 0 
          0.36691 -0.00051829 0 
          0.0227521 -0.257721 0 
          0.122122 -0.230145 0 
          0.0200329 -0.253012 0 
          0.0875817 -0.236482 0 
          0.0536501 -0.227199 0 
          0.0126632 -0.229567 0 
          0.169623 -0.222929 0 
          0.0992987 -0.21864 0 
          0.146229 -0.217891 0 
          0.106245 -0.255639 0 
          0.174558 -0.230929 0 
          0.147493 -0.245905 0 
          0.0714779 -0.27836 0 
          0.152586 -0.258137 0 
          0.114688 -0.276854 0 
          0.107939 -0.278465 0 
          0.168124 -0.252446 0 
          0.176278 -0.246149 0 
          0.102831 -0.296552 0 
          0.155327 -0.269863 0 
          0.0275366 -0.319236 0 
          0.0948183 -0.311716 0 
          0.272454 -0.129931 0 
          0.242837 -0.169875 0 
          0.300089 -0.104449 0 
          0.259921 -0.148653 0 
          0.300107 -0.104707 0 
          0.242114 -0.159721 0 
          0.245944 -0.15862 0 
          0.258905 -0.146712 0 
          0.212662 -0.177001 0 
          0.205715 -0.18261 0 
          0.192476 -0.216016 0 
          0.212258 -0.209918 0 
          0.204605 -0.219815 0 
          0.24968 -0.147316 0 
          0.257519 -0.121141 0 
          0.247521 -0.146582 0 
          0.203721 -0.221157 0 
          0.000791071 -0.337744 0 
          0.0607361 -0.32827 0 
          0.113653 -0.321694 0 
          0.0441875 -0.344968 0 
          0.0695347 -0.339697 0 
          0.0922944 -0.338775 0 
          0.0680335 -0.353364 0 
          0.101144 -0.343992 0 
          0.0431711 -0.366089 0 
          0.131494 -0.323972 0 
          0.0552016 -0.383542 0 
          0.0659899 -0.375917 0 
          0.138527 -0.310688 0 
          0.120231 -0.342977 0 
          0.0706322 -0.393374 0 
          0.0548721 -0.408267 0 
          0.112543 -0.355504 0 
          0.115755 -0.350047 0 
          0.104494 -0.367265 0 
          0.0755902 -0.398723 0 
          0.0569842 -0.412189 0 
          0.212816 -0.199681 0 
          0.213389 -0.174971 0 
          0.232775 -0.164292 0 
          0.227196 -0.175055 0 
          0.230135 -0.140715 0 
          0.247392 -0.136441 0 
          0.23569 -0.169139 0 
          0.194575 -0.161876 0 
          0.176279 -0.251013 0 
          0.163763 -0.263834 0 
          0.179638 -0.210623 0 
          0.161714 -0.240941 0 
          0.159531 -0.228954 0 
          0.150233 -0.274284 0 
          0.331596 -0.0323175 0 
          0.319783 -0.0249363 0 
          0.293878 -0.0358398 0 
          0.313398 -0.0632992 0 
          0.317366 -0.0502173 0 
          0.291382 -0.0126386 0 
          0.337147 -0.032288 0 
          0.310255 -0.0467057 0 
          0.329838 -0.00544774 0 
          0.338239 -0.0384262 0 
          0.321518 -0.053156 0 
          0.28809 -0.0668623 0 
          0.299005 -0.0800446 0 
          0.31818 -0.0701571 0 
          0.308927 -0.0735474 0 
          0.29854 -0.0804224 0 
          0.316989 -0.0745616 0 
          0.3106 -0.0810489 0 
          0.296273 -0.0964677 0 
          0.276721 0.0511874 0 
          0.321502 0.0309831 0 
          0.297334 0.0729403 0 
          0.279031 0.0529396 0 
          0.31022 0.0407204 0 
          0.328933 0.0422354 0 
          0.316028 0.0632871 0 
          0.302096 0.0884741 0 
          0.293524 0.027124 0 
          0.346446 0.00483063 0 
          0.331926 0.0572464 0 
          0.304925 -0.000843965 0 
          0.298959 0.00115732 0 
          0.246385 -0.0781929 0 
          0.210613 -0.0495047 0 
          0.222264 -0.0839828 0 
          0.177455 -0.0871819 0 
          0.193604 -0.0793634 0 
          0.235921 -0.0423443 0 
          0.201434 -0.0101316 0 
          0.183168 -0.0518071 0 
          0.253496 -0.0863419 0 
          0.271881 -0.00110694 0 
          0.259292 -0.101788 0 
          0.20334 -0.11525 0 
          0.221758 -0.121797 0 
          0.199133 0.0959456 0 
          0.184073 0.0601354 0 
          0.166181 0.124513 0 
          0.16846 0.12721 0 
          0.171734 0.0755538 0 
          0.188001 0.119871 0 
          0.192316 0.0462011 0 
          0.24136 0.0514857 0 
          0.227824 0.0305128 0 
          0.242752 0.0285686 0 
          0.195607 0.0287851 0 
          0.229848 0.1103 0 
          0.248099 0.0712937 0 
          0.241429 0.106943 0 
          0.170122 0.0153245 0 
          0.247013 0.11141 0 
          0.257412 0.0969937 0 
          0.265459 0.078201 0 
          0.224782 0.00551767 0 
          0.243749 0.00281522 0 
          0.312509 0.0346742 0 
          0.299257 0.0363404 0 
          0.328599 0.00959705 0 
          0.318845 0.041721 0 
          0.308579 0.0113849 0 
          0.28488 0.0525096 0 
          0.287011 0.010649 0 
          0.325296 0.0368236 0 
          0.322734 0.0126348 0 
          0.281885 0.0348018 0 
          0.269853 0.0363054 0 
          0.3143 0.0179547 0 
          0.333936 0.0313551 0 
          0.339017 0.0437614 0 
          0.347082 0.012645 0 
          0.351664 0.0209436 0 
          0.169703 0.0212456 0 
          0.099286 0.0583078 0 
          0.139621 0.0744071 0 
          0.216049 0.0397728 0 
          0.178746 0.0102696 0 
          0.195103 0.0690688 0 
          0.126047 0.0100742 0 
          0.180486 0.0711426 0 
          0.0978538 0.0230511 0 
          0.127889 0.00986964 0 
          0.0840731 0.010699 0 
          0.228543 0.00496849 0 
          0.207305 0.140828 0 
          0.290664 0.0795586 0 
          0.213357 0.138535 0 
          0.273869 0.0893548 0 
          0.274782 0.0830017 0 
          0.274369 0.107218 0 
          0.255597 0.121815 0 
          0.264639 0.10679 0 
          0.237142 0.100173 0 
          0.245764 0.0896901 0 
          0.247674 0.0848474 0 
          0.288998 0.0679071 0 
          0.307462 0.0882201 0 
          0.332245 0.0529335 0 
          0.330315 0.0592943 0 
          0.333065 0.0534039 0 
          0.333834 0.0480945 0 
          0.331675 0.0486197 0 
          0.0977505 0.0925534 0 
          0.168437 0.149602 0 
          0.122163 0.111024 0 
          0.121217 0.086947 0 
          0.196886 0.107509 0 
          0.139979 0.147075 0 
          0.187005 0.149637 0 
          0.173949 0.130118 0 
          0.0811422 0.0807313 0 
          0.0720432 0.0912503 0 
          0.11516 0.0808995 0 
          0.000591111 0.00902181 0 
          0.0170973 0.00338754 0 
          0.0639717 0.0236155 0 
          0.055048 0.0335237 0 
          0.0717086 0.0276064 0 
          -0.00841456 0.024113 0 
          0.0729969 0.0479534 0 
          -0.0116197 0.00672881 0 
          -0.00616512 -0.00476712 0 
          -0.0111985 0.00146065 0 
          -0.0113118 -0.00246017 0 
          -0.013264 -0.00361074 0 
          -0.0111036 0.00122251 0 
          -0.0114581 -0.000574184 0 
          -0.000557507 -0.00758634 0 
          -0.00162602 -0.00394388 0 
          -0.0101664 0.00756988 0 
          -0.00871965 2.86432e-05 0 
          -0.00708261 0.00230326 0 
          -0.00618784 -0.0038294 0 
          -0.0149974 -0.00696344 0 
          -0.0312317 0.0506104 0 
          -0.00612819 0.0395168 0 
          0.025646 0.0996786 0 
          0.0231063 0.0728487 0 
          -0.010763 0.0522962 0 
          -0.0142445 0.0613779 0 
          0.0543888 0.0880964 0 
          -0.0143786 0.049977 0 
          0.00697532 0.046383 0 
          -0.0210018 0.031505 0 
          -0.0199124 0.0213422 0 
          -0.0127993 -0.0124294 0 
          -0.0208772 -0.00369971 0 
          -0.0218784 0.00413273 0 
          -0.0185916 0.00188285 0 
          -0.0198819 -0.0197431 0 
          -0.00155543 -0.0222124 0 
          -0.0290094 0.0155486 0 
          -0.0294842 0.00757644 0 
          -0.00461353 -0.0156719 0 
          -0.0226723 -0.0251352 0 
          -0.034818 -9.19042e-05 0 
          -0.0232513 -0.0253076 0 
          -0.027166 -0.0241739 0 
          -0.0169835 -0.0338309 0 
          -0.038611 -0.00185328 0 
          -0.0116351 -0.0376347 0 
          -0.0355585 -0.0163341 0 
          0.230453 0.160993 0 
          0.239606 0.151498 0 
          0.195024 0.182061 0 
          0.245275 0.14161 0 
          0.197519 0.187473 0 
          0.227571 0.164891 0 
          0.213195 0.167413 0 
          0.224852 0.1521 0 
          0.260796 0.122716 0 
          0.290108 0.104626 0 
          0.236134 0.142687 0 
          0.261863 0.129167 0 
          0.22186 0.148123 0 
          0.214773 0.151278 0 
          0.27852 0.112707 0 
          0.112158 0.210042 0 
          0.158097 0.193712 0 
          0.0393789 0.205736 0 
          0.103832 0.229365 0 
          0.105716 0.206836 0 
          0.116676 0.192451 0 
          0.11915 0.200784 0 
          0.0775732 0.197824 0 
          0.0969758 0.176276 0 
          0.17279 0.178699 0 
          0.0101062 0.208509 0 
          0.146676 0.17052 0 
          0.10685 0.160983 0 
          0.06618 0.149781 0 
          0.0464384 0.143321 0 
          1.59123e-05 0.203172 0 
          0.189669 0.153458 0 
          0.159259 0.202931 0 
          0.162493 0.202114 0 
          0.170923 0.207589 0 
          0.201707 0.166313 0 
          0.20195 0.179202 0 
          0.150042 0.243347 0 
          0.181293 0.210467 0 
          0.221369 0.164269 0 
          0.233491 0.143804 0 
          0.176947 0.14062 0 
          0.230104 0.131041 0 
          0.238535 0.138188 0 
          0.240551 0.121647 0 
          0.222922 0.169726 0 
          0.237907 0.148467 0 
          0.190227 0.201701 0 
          0.0907273 0.303462 0 
          0.0167327 0.297822 0 
          0.114415 0.281669 0 
          0.0583681 0.298042 0 
          0.122026 0.272796 0 
          0.00925282 0.303058 0 
          0.0480984 0.318218 0 
          0.128383 0.263962 0 
          0.136907 0.250879 0 
          -0.0378677 0.292972 0 
          0.0636125 0.251956 0 
          0.128758 0.24809 0 
          0.112626 0.246151 0 
          0.0544123 0.242107 0 
          -0.0104681 0.221164 0 
          0.137645 0.234221 0 
          0.145776 0.227925 0 
          -0.027449 0.0891418 0 
          -0.041053 0.0784193 0 
          -0.00134503 0.156712 0 
          -0.0245292 0.0959592 0 
          -0.00478212 0.136714 0 
          -0.0446081 0.140366 0 
          -0.0270964 0.0852413 0 
          -0.0449789 0.0862907 0 
          -0.0446203 0.146081 0 
          -0.0348128 0.169582 0 
          -0.0228709 0.150911 0 
          -0.0252337 0.0921582 0 
          -0.0390864 0.156782 0 
          -0.0220611 0.165595 0 
          0.00101774 0.116933 0 
          -0.0664238 0.0739752 0 
          -0.043896 0.0292088 0 
          -0.0590953 0.0279984 0 
          -0.0847438 0.0273346 0 
          -0.0402602 -0.0164692 0 
          -0.0429422 -0.00729666 0 
          -0.0607563 -0.00636752 0 
          -0.0509259 -0.0347095 0 
          -0.0447943 -0.000535275 0 
          -0.019601 -0.0494666 0 
          -0.0403418 -0.0284706 0 
          -0.0526367 -0.0373952 0 
          -0.0495949 -0.0465282 0 
          -0.0274193 -0.0726569 0 
          -0.0804206 0.0240463 0 
          -0.0107567 -0.0799401 0 
          -0.0574703 -0.0480844 0 
          -0.0359001 -0.0730515 0 
          -0.0787798 -0.0027624 0 
          -0.0728387 -0.0299011 0 
          -0.0490777 -0.0662417 0 
          -0.0607559 -0.055263 0 
          -0.0702502 -0.0452298 0 
          -0.0310622 -0.0877273 0 
          -0.0886443 0.0767154 0 
          -0.0461034 0.200764 0 
          -0.0846254 0.145021 0 
          -0.0281865 0.231437 0 
          -0.0851313 0.141726 0 
          -0.0850922 0.126064 0 
          -0.129983 0.0498423 0 
          -0.0929048 0.041774 0 
          -0.0877912 0.0457393 0 
          -0.102407 0.0258783 0 
          -0.0812234 -0.0491423 0 
          -0.0746309 -0.0458321 0 
          -0.0702534 -0.0525086 0 
          -0.0646716 -0.0636527 0 
          -0.0420774 -0.117791 0 
          -0.0874458 -0.0905342 0 
          -0.114543 -0.0303395 0 
          -0.0788785 -0.129193 0 
          -0.0906473 -0.125348 0 
          0.115832 -0.340684 0 
          0.10865 -0.360034 0 
          0.026256 -0.436496 0 
          0.0220445 -0.440069 0 
          0.0619232 -0.426502 0 
          0.0760841 -0.414617 0 
          0.100711 -0.350703 0 
          0.0809441 -0.400373 0 
          0.0647407 -0.435819 0 
          0.0781658 -0.390949 0 
          0.0745703 -0.334154 0 
          0.0644867 -0.426745 0 
          0.0374112 -0.481832 0 
          0.00962134 -0.494637 0 
          0.0552739 -0.450411 0 
          0.031967 -0.490167 0 
          0.0192666 -0.504357 0 
          0.156983 -0.139198 0 
          0.142671 -0.194865 0 
          0.125035 -0.125734 0 
          0.147636 -0.25076 0 
          0.0517127 -0.127624 0 
          0.118873 -0.165007 0 
          0.102267 -0.274552 0 
          0.0812654 -0.261629 0 
          0.0854919 -0.314347 0 
          0.123929 -0.314052 0 
          0.0477329 -0.209248 0 
          0.0704356 -0.32339 0 
          0.0526901 -0.2737 0 
          0.0244305 -0.512168 0 
          -0.00732586 -0.407922 0 
          0.0136664 -0.514683 0 
          0.0421651 -0.23115 0 
          0.0422999 -0.250793 0 
          0.000568872 -0.156788 0 
          -0.0711398 -0.140517 0 
          0.013251 -0.285389 0 
          0.0301802 -0.196614 0 
          0.0296896 -0.28921 0 
          -0.0483926 -0.121259 0 
          -0.127748 -0.137596 0 
          -0.0599281 -0.219498 0 
          -0.197144 -0.0736721 0 
          0.0768913 -0.0394571 0 
          0.0750509 -0.0794808 0 
          -0.00112183 -0.0556426 0 
          0.0977763 -0.0542582 0 
          0.099364 -0.0100522 0 
          0.0548997 -0.0480051 0 
          0.0177408 -0.0202609 0 
          0.00561317 -0.0350944 0 
          0.0480191 -0.00923995 0 
          0.0771689 -0.0853481 0 
          0.0571403 -0.0652006 0 
          0.0689987 -0.0590599 0 
          0.0317387 -0.064995 0 
          0.0937943 -0.0884442 0 
          0.0219656 -0.101425 0 
          -0.0120927 -0.0574364 0 
          -0.015119 -0.0500372 0 
          0.0564868 0.11973 0 
          0.0557499 0.0802838 0 
          0.00780273 0.0684524 0 
          0.0499986 0.0477818 0 
          0.0633709 0.106187 0 
          0.0444649 0.079451 0 
          0.0355144 0.0549328 0 
          0.0682039 0.108046 0 
          0.0795172 0.0958536 0 
          0.111417 0.051661 0 
          0.0370452 0.0088406 0 
          0.127331 0.0957209 0 
          0.142756 0.051629 0 
          -0.184483 -0.0384167 0 
          -0.165245 -0.0406962 0 
          -0.0668613 -0.0944213 0 
          -0.123729 -0.042781 0 
          -0.0244705 -0.059492 0 
          -0.148541 -0.0584753 0 
          -0.0322578 -0.0517769 0 
          -0.185173 -0.0656992 0 
          -0.128797 -0.0481751 0 
          -0.094315 -0.0341338 0 
          -0.0323423 -0.00489743 0 
          -0.243835 -0.0519907 0 
          -0.0597588 0.00360414 0 
          -0.174915 0.028715 0 
          -0.151681 0.0309578 0 
          -0.211382 0.0577111 0 
          -0.26064 0.0131484 0 
          -0.200153 0.0210725 0 
          -0.186092 0.0269712 0 
          -0.0966584 0.0119826 0 
          -0.123937 0.0312941 0 
          -0.106957 0.0812709 0 
          -0.127712 0.0896666 0 
          -0.0763369 0.0141224 0 
          -0.07306 0.00663421 0 
          -0.105967 0.0701031 0 
          -0.0983969 0.0587632 0 
          -0.0538767 0.0499454 0 
          -0.0618768 0.0294832 0 
          -0.0323494 0.0180643 0 
          -0.0280531 0.0712407 0 
          -0.0236217 0.0388948 0 
          -0.156912 0.0882867 0 
          0.0124397 0.110876 0 
          -0.059267 -0.381617 0 
          0.00156842 -0.503086 0 