<?xml version="1.0"?>
<VTKFile type="UnstructuredGrid" version="0.1" byte_order="LittleEndian">
  <UnstructuredGrid>
    <Piece NumberOfPoints="1000" NumberOfCells="1000">
      <Points>
        <DataArray name="Position" type="Float64" NumberOfComponents="3" Format="ascii">
          0.133333 0.033215 0.0
          0.031801 0.0211599 0.0
          0.242456 0.00280233 0.0
          0.0591883 0.000536461 0.0
          0.220104 0.0492377 0.0
          0.0356997 0.0404704 0.0
          0.245625 0.00142573 0.0
          0.0868637 0.0598308 0.0
          0.108043 0.0773096 0.0
          0.237314 0.0796027 0.0
          0.0367085 0.0845269 0.0
          0.202951 0.105563 0.0
          0.188736 0.111937 0.0
          0.123309 0.11229 0.0
          0.205558 0.120191 0.0
          0.229768 0.122301 0.0
          0.0719608 0.122948 0.0
          0.488051 0.0153635 0.0
          0.444554 0.00469143 0.0
          0.474823 0.0823185 0.0
          0.428836 0.0791873 0.0
          0.359626 0.091283 0.0
          0.348593 0.0486621 0.0
          0.349312 0.0243742 0.0
          0.408116 0.10372 0.0
          0.287017 0.0968656 0.0
          0.276911 0.000740898 0.0
          0.25179 0.094637 0.0
          0.252455 0.123292 0.0
          0.259393 0.122342 0.0
          0.212337 0.127166 0.0
          0.178 0.125127 0.0
          0.0616349 0.13313 0.0
          0.243787 0.140349 0.0
          0.217834 0.151605 0.0
          0.125792 0.151448 0.0
          0.23719 0.166835 0.0
          0.0298341 0.169987 0.0
          0.0095352 0.174314 0.0
          0.112998 0.221837 0.0
          0.152835 0.21994 0.0
          0.155386 0.225215 0.0
          0.144009 0.226072 0.0
          0.0494717 0.228948 0.0
          0.0982907 0.238517 0.0
          0.137802 0.243793 0.0
          0.45386 0.146262 0.0
          0.498905 0.179488 0.0
          0.399679 0.170757 0.0
          0.38358 0.131941 0.0
          0.381131 0.165244 0.0
          0.407569 0.19538 0.0
          0.318807 0.152136 0.0
          0.437864 0.211847 0.0
          0.456172 0.218301 0.0
          0.313631 0.235147 0.0
          0.306255 0.237873 0.0
          0.257682 0.146861 0.0
          0.263131 0.176406 0.0
          0.357588 0.241253 0.0
          0.279716 0.243346 0.0
          0.721665 0.0348145 0.0
          0.69608 0.0803541 0.0
          0.621999 0.0762978 0.0
          0.623808 0.0561006 0.0
          0.600586 0.0764813 0.0
          0.749651 0.117417 0.0
          0.620673 0.115673 0.0
          0.581839 0.0258267 0.0
          0.561488 0.0663441 0.0
          0.567376 0.0831586 0.0
          0.718718 0.120375 0.0
          0.713217 0.120757 0.0
          0.598336 0.120307 0.0
          0.527096 0.0329273 0.0
          0.534682 0.123743 0.0
          0.979136 0.00661748 0.0
          0.950018 0.0379687 0.0
          0.958812 0.0485974 0.0
          0.922573 0.027888 0.0
          0.912656 0.0816621 0.0
          0.870093 0.0939307 0.0
          0.863559 0.0962265 0.0
          0.863078 0.077802 0.0
          0.849992 0.102499 0.0
          0.847032 0.0141982 0.0
          0.84105 0.11218 0.0
          0.821215 0.0457977 0.0
          0.829703 0.00864632 0.0
          0.805597 0.0587401 0.0
          0.786693 0.0533309 0.0
          0.768806 0.040585 0.0
          0.74843 0.155759 0.0
          0.728947 0.175843 0.0
          0.656014 0.154873 0.0
          0.737875 0.22761 0.0
          0.695774 0.231146 0.0
          0.584597 0.128056 0.0
          0.563268 0.214419 0.0
          0.535405 0.187105 0.0
          0.622091 0.242794 0.0
          0.510985 0.149949 0.0
          0.967511 0.207307 0.0
          0.982731 0.175355 0.0
          0.954093 0.201192 0.0
          0.949478 0.211791 0.0
          0.917859 0.178447 0.0
          0.892637 0.145274 0.0
          0.888844 0.128763 0.0
          0.951473 0.244993 0.0
          0.874311 0.126083 0.0
          0.879497 0.167284 0.0
          0.838164 0.230464 0.0
          0.827778 0.179008 0.0
          0.824198 0.1846 0.0
          0.779184 0.171596 0.0
          0.132683 0.256202 0.0
          0.0156556 0.255027 0.0
          0.236507 0.273785 0.0
          0.125674 0.262042 0.0
          0.0644452 0.260385 0.0
          0.218169 0.282197 0.0
          0.123013 0.276775 0.0
          0.0713233 0.27685 0.0
          0.157232 0.333013 0.0
          0.129263 0.334906 0.0
          0.0210887 0.334932 0.0
          0.155575 0.344727 0.0
          0.123434 0.348564 0.0
          0.0203276 0.352837 0.0
          0.213311 0.360813 0.0
          0.214935 0.359051 0.0
          0.347899 0.280675 0.0
          0.378125 0.282802 0.0
          0.327515 0.294706 0.0
          0.470653 0.323401 0.0
          0.395017 0.319651 0.0
          0.301346 0.315949 0.0
          0.475777 0.337876 0.0
          0.493037 0.347105 0.0
          0.466487 0.344232 0.0
          0.397159 0.3348 0.0
          0.283868 0.336004 0.0
          0.43166 0.343642 0.0
          0.286756 0.33523 0.0
          0.469924 0.35147 0.0
          0.462391 0.356083 0.0
          0.0152242 0.380063 0.0
          0.0937876 0.433596 0.0
          0.0713091 0.429801 0.0
          0.00299122 0.431314 0.0
          0.104651 0.448084 0.0
          0.0551878 0.442814 0.0
          0.0505742 0.444439 0.0
          0.0311402 0.44712 0.0
          0.0288093 0.44562 0.0
          0.164971 0.461794 0.0
          0.0121237 0.469745 0.0
          0.388118 0.398797 0.0
          0.357428 0.403631 0.0
          0.420437 0.422997 0.0
          0.466268 0.439721 0.0
          0.396022 0.423393 0.0
          0.361797 0.418766 0.0
          0.297256 0.397288 0.0
          0.29185 0.424295 0.0
          0.285503 0.402289 0.0
          0.429736 0.462843 0.0
          0.423128 0.459933 0.0
          0.304291 0.454079 0.0
          0.269515 0.3819 0.0
          0.262881 0.441537 0.0
          0.260725 0.379662 0.0
          0.689035 0.272752 0.0
          0.722683 0.331133 0.0
          0.672333 0.324426 0.0
          0.683937 0.33045 0.0
          0.654569 0.257827 0.0
          0.63884 0.301633 0.0
          0.747845 0.34991 0.0
          0.648701 0.336948 0.0
          0.715383 0.34805 0.0
          0.609217 0.265408 0.0
          0.603907 0.30526 0.0
          0.673775 0.351212 0.0
          0.591782 0.264657 0.0
          0.574485 0.308224 0.0
          0.552999 0.303285 0.0
          0.533261 0.265386 0.0
          0.535072 0.267058 0.0
          0.688806 0.36839 0.0
          0.514282 0.36261 0.0
          0.675483 0.371173 0.0
          0.504658 0.27382 0.0
          0.966143 0.358029 0.0
          0.988127 0.320765 0.0
          0.988855 0.311651 0.0
          0.988078 0.267362 0.0
          0.974705 0.270555 0.0
          0.943264 0.309044 0.0
          0.95114 0.25441 0.0
          0.937559 0.295876 0.0
          0.944723 0.267511 0.0
          0.887009 0.29264 0.0
          0.888422 0.366597 0.0
          0.8419 0.363768 0.0
          0.850134 0.254693 0.0
          0.810355 0.288881 0.0
          0.811845 0.301717 0.0
          0.790862 0.356462 0.0
          0.764335 0.28717 0.0
          0.735341 0.434919 0.0
          0.694747 0.424911 0.0
          0.682426 0.400658 0.0
          0.667874 0.381868 0.0
          0.626958 0.378964 0.0
          0.607148 0.48013 0.0
          0.535259 0.385441 0.0
          0.571983 0.482939 0.0
          0.52196 0.44853 0.0
          0.523093 0.459402 0.0
          0.97118 0.486983 0.0
          0.954133 0.49218 0.0
          0.940956 0.478334 0.0
          0.928461 0.483048 0.0
          0.933619 0.476095 0.0
          0.943754 0.461129 0.0
          0.994053 0.406451 0.0
          0.879878 0.486793 0.0
          0.918785 0.434534 0.0
          0.928721 0.412951 0.0
          0.86877 0.458905 0.0
          0.84259 0.472616 0.0
          0.837222 0.378576 0.0
          0.837522 0.396654 0.0
          0.812683 0.392074 0.0
          0.809152 0.490415 0.0
          0.805764 0.395136 0.0
          0.777056 0.424371 0.0
          0.766462 0.394729 0.0
          1.22776 0.102231 0.0
          1.22886 0.00524075 0.0
          1.18827 0.0624489 0.0
          1.19247 0.0636044 0.0
          1.17096 0.0314134 0.0
          1.16889 0.101454 0.0
          1.13213 0.0847028 0.0
          1.13023 0.0989205 0.0
          1.13565 0.00115064 0.0
          1.10053 0.0739022 0.0
          1.07588 0.0681226 0.0
          1.08001 0.0937838 0.0
          1.04188 0.027183 0.0
          1.0175 0.0808675 0.0
          1.00202 0.051351 0.0
          1.48893 0.0304976 0.0
          1.47082 0.00878273 0.0
          1.43305 0.0810283 0.0
          1.41848 0.114227 0.0
          1.36557 0.113885 0.0
          1.33838 0.0742391 0.0
          1.33929 0.0991334 0.0
          1.33795 0.00610231 0.0
          1.32525 0.00369162 0.0
          1.31415 0.107299 0.0
          1.31081 0.0465311 0.0
          1.3043 0.02888 0.0
          1.29682 0.0400496 0.0
          1.29242 0.112453 0.0
          1.29641 0.0232876 0.0
          1.28103 0.0698102 0.0
          1.26772 0.0882854 0.0
          1.26567 0.0189379 0.0
          1.22475 0.246695 0.0
          1.23645 0.211322 0.0
          1.2391 0.191506 0.0
          1.22003 0.183652 0.0
          1.21767 0.154644 0.0
          1.17431 0.235639 0.0
          1.18319 0.145449 0.0
          1.14914 0.179599 0.0
          1.10776 0.234871 0.0
          1.06884 0.193098 0.0
          1.07277 0.177774 0.0
          1.07702 0.155568 0.0
          1.06167 0.192386 0.0
          1.05104 0.223207 0.0
          1.04777 0.208697 0.0
          1.04397 0.17025 0.0
          1.01142 0.195164 0.0
          1.46218 0.201889 0.0
          1.45866 0.195978 0.0
          1.46638 0.153564 0.0
          1.4372 0.162977 0.0
          1.33325 0.239523 0.0
          1.32052 0.222485 0.0
          1.28932 0.248396 0.0
          1.28852 0.178851 0.0
          1.27863 0.209037 0.0
          1.25115 0.130322 0.0
          1.66442 0.0736911 0.0
          1.68079 0.123393 0.0
          1.70353 0.0787888 0.0
          1.69056 0.0242707 0.0
[...]
      <PointData Scalars="scalars">
        <DataArray type="Float64" Name="velocity" NumberOfComponents="3" Format="ascii">
          0.118032 -0.0301504 0 
          0.0291301 -0.0201534 0 
          0.206984 -0.00227255 0 
          0.0537558 -0.000507747 0 
          0.188828 -0.0409373 0 
          0.0326272 -0.0384675 0 
          0.209457 -0.00115115 0 
          0.0779157 -0.0557645 0 
          0.0959918 -0.0711377 0 
          0.201369 -0.0644428 0 
          0.0333776 -0.0801097 0 
          0.173348 -0.0891119 0 
          0.161782 -0.0959726 0 
          0.108228 -0.102039 0 
          0.174706 -0.100991 0 
          0.193391 -0.0995673 0 
          0.0641678 -0.114888 0 
          0.360852 -0.00758326 0 
          0.339176 -0.00259406 0 
          0.350184 -0.0413905 0 
          0.327161 -0.0446847 0 
          0.286086 -0.0596413 0 
          0.281742 -0.0327388 0 
          0.282961 -0.0164462 0 
          0.313363 -0.0610339 0 
          0.23747 -0.0722747 0 
          0.233169 -0.000569851 0 
          0.211812 -0.0748509 0 
          0.210595 -0.0970609 0 
          0.215836 -0.09526 0 
          0.179634 -0.10588 0 
          0.15263 -0.108371 0 
          0.0550307 -0.124811 0 
          0.202858 -0.111666 0 
          0.182344 -0.124849 0 
          0.109117 -0.136831 0 
          0.195774 -0.133293 0 
          0.026681 -0.160214 0 
          0.00858198 -0.164763 0 
          0.0957517 -0.199871 0 
          0.127384 -0.191974 0 
          0.128997 -0.195885 0 
          0.120107 -0.198647 0 
          0.042952 -0.212797 0 
          0.0831341 -0.216285 0 
          0.114125 -0.214564 0 
          0.330799 -0.0762793 0 
          0.3431 -0.0813872 0 
          0.298929 -0.100328 0 
          0.296103 -0.0813995 0 
          0.289778 -0.101352 0 
          0.298042 -0.111445 0 
          0.254082 -0.106143 0 
          0.308554 -0.111284 0 
          0.314773 -0.108926 0 
          0.238112 -0.16062 0 
          0.233181 -0.164627 0 
          0.212708 -0.114181 0 
          0.213782 -0.134897 0 
          0.261649 -0.150221 0 
          0.215804 -0.17665 0 
          0.439858 -0.00780029 0 
          0.428567 -0.0196622 0 
          0.408724 -0.0245876 0 
          0.411765 -0.0180902 0 
          0.40171 -0.0264811 0 
          0.431716 -0.0224993 0 
          0.401336 -0.0369398 0 
          0.399628 -0.00965231 0 
          0.388913 -0.0260904 0 
          0.389043 -0.0319481 0 
          0.425144 -0.0264094 0 
          0.423913 -0.0271107 0 
          0.393304 -0.0413553 0 
          0.377726 -0.0144825 0 
          0.369882 -0.0518467 0 
          0.470864 -0.000144117 0 
          0.468247 -0.00157197 0 
          0.467447 -0.00170687 0 
          0.467643 -0.001704 0 
          0.459793 -0.0054421 0 
          0.453713 -0.00913452 0 
          0.452549 -0.00981794 0 
          0.456343 -0.00803302 0 
          0.449643 -0.0114763 0 
          0.461536 -0.0016839 0 
          0.446182 -0.0132673 0 
          0.456044 -0.00629452 0 
          0.459526 -0.00114693 0 
          0.452281 -0.00876599 0 
          0.450087 -0.00880067 0 
          0.448448 -0.00733843 0 
          0.419948 -0.0293774 0 
          0.40931 -0.0356402 0 
          0.401063 -0.0427859 0 
          0.387369 -0.0422162 0 
          0.378933 -0.0512476 0 
          0.387076 -0.0459141 0 
          0.354435 -0.0780225 0 
          0.354522 -0.0757324 0 
          0.358206 -0.0706409 0 
          0.355129 -0.0666368 0 
          0.416832 -0.00527562 0 
          0.432628 -0.00297603 0 
          0.41966 -0.00685349 0 
          0.413961 -0.00772632 0 
          0.42904 -0.0105122 0 
          0.440744 -0.0113889 0 
          0.445972 -0.0105563 0 
          0.394691 -0.00823282 0 
          0.445581 -0.0116842 0 
          0.431297 -0.0144275 0 
          0.396996 -0.0251455 0 
          0.421546 -0.021988 0 
          0.418721 -0.0230498 0 
          0.418634 -0.0276424 0 
          0.109355 -0.225828 0 
          0.0136383 -0.238031 0 
          0.182623 -0.211913 0 
          0.103562 -0.231968 0 
          0.054743 -0.23931 0 
          0.168937 -0.223961 0 
          0.100555 -0.244626 0 
          0.0598372 -0.252775 0 
          0.120527 -0.280146 0 
          0.100671 -0.289417 0 
          0.0175387 -0.307079 0 
          0.118032 -0.289256 0 
          0.0952993 -0.301389 0 
          0.0167119 -0.322145 0 
          0.152704 -0.27834 0 
          0.154022 -0.276508 0 
          0.246727 -0.174481 0 
          0.260791 -0.164068 0 
          0.232472 -0.189626 0 
          0.279507 -0.141817 0 
          0.255312 -0.172868 0 
          0.213109 -0.211723 0 
          0.273507 -0.143483 0 
          0.272565 -0.138002 0 
          0.267723 -0.149252 0 
          0.250091 -0.177584 0 
          0.19862 -0.230334 0 
          0.257999 -0.164872 0 
          0.200343 -0.228561 0 
          0.264707 -0.1495 0 
          0.26031 -0.154106 0 
          0.01232 -0.344937 0 
          0.067619 -0.371949 0 
          0.0527331 -0.37509 0 
          0.00234635 -0.386381 0 
          0.0732147 -0.378471 0 
          0.0408196 -0.388062 0 
          0.0375037 -0.39016 0 
          0.0234571 -0.39542 0 
          0.0217831 -0.394633 0 
          0.105614 -0.361357 0 
          0.00909007 -0.414577 0 
          0.217651 -0.202351 0 
          0.205906 -0.22063 0 
          0.211519 -0.189614 0 
          0.206581 -0.166009 0 
          0.206045 -0.203524 0 
          0.199723 -0.222271 0 
          0.186321 -0.252612 0 
          0.173991 -0.266204 0 
          0.17961 -0.261513 0 
          0.185129 -0.188777 0 
          0.186563 -0.192542 0 
          0.165273 -0.267467 0 
          0.17883 -0.26139 0 
          0.156489 -0.291401 0 
          0.175158 -0.265153 0 
          0.355067 -0.0593792 0 
          0.318793 -0.0572188 0 
          0.318504 -0.070346 0 
          0.315448 -0.0676482 0 
          0.357542 -0.0655094 0 
          0.329052 -0.0771384 0 
          0.305232 -0.0520598 0 
          0.306315 -0.0787678 0 
          0.304595 -0.0603595 0 
          0.344076 -0.0790509 0 
          0.320464 -0.0883751 0 
          0.298279 -0.0724683 0 
          0.340413 -0.0838353 0 
          0.312767 -0.0985311 0 
          0.310855 -0.10483 0 
          0.324693 -0.101759 0 
          0.324457 -0.101661 0 
          0.285403 -0.0691923 0 
          0.267348 -0.131634 0 
          0.281962 -0.0734036 0 
          0.312596 -0.113823 0 
          0.305513 -0.00694274 0 
          0.339418 -0.00314663 0 
          0.347046 -0.0030257 0 
          0.3806 -0.00305117 0 
          0.378219 -0.00509731 0 
          0.348492 -0.0106676 0 
          0.388668 -0.00847662 0 
          0.358778 -0.0114494 0 
          0.379707 -0.0097365 0 
          0.359409 -0.0202548 0 
          0.295813 -0.021722 0 
          0.297137 -0.0313166 0 
          0.383485 -0.0249088 0 
          0.357489 -0.0345752 0 
          0.348189 -0.0351003 0 
          0.301763 -0.0423146 0 
          0.354767 -0.0437519 0 
          0.221603 -0.0572155 0 
          0.231943 -0.0690801 0 
          0.255788 -0.0725749 0 
          0.272108 -0.0764184 0 
          0.271004 -0.0899251 0 
          0.171034 -0.0987904 0 
          0.255113 -0.126194 0 
          0.168637 -0.113405 0 
          0.202492 -0.136933 0 
          0.19254 -0.136524 0 
          0.155341 -0.00514329 0 
          0.148126 -0.00808049 0 
          0.167076 -0.0107201 0 
          0.160726 -0.0129751 0 
          0.170084 -0.0121323 0 
          0.189733 -0.0104648 0 
          0.255656 -0.001846 0 
          0.155967 -0.0224374 0 
          0.222715 -0.015598 0 
          0.247884 -0.013827 0 
          0.192633 -0.0254435 0 
          0.175241 -0.0307311 0 
          0.282703 -0.0326033 0 
          0.264331 -0.0327319 0 
          0.268485 -0.0382421 0 
          0.152289 -0.0375436 0 
          0.265179 -0.0398556 0 
          0.233485 -0.0467163 0 
          0.264538 -0.0490906 0 
          0.442875 0.0156401 0 
          0.454498 0.000834959 0 
          0.455786 0.00775518 0 
          0.455088 0.00810112 0 
          0.461266 0.00352632 0 
          0.450485 0.0109465 0 
          0.457653 0.00690486 0 
          0.454649 0.00788905 0 
          0.46599 9.97886e-05 0 
          0.461961 0.00438459 0 
          0.464216 0.00288747 0 
          0.458922 0.00420494 0 
          0.470047 0.000539659 0 
          0.463063 0.00031073 0 
          0.467924 -0.000317796 0 
          0.379686 0.0128171 0 
          0.387878 0.00352156 0 
          0.397014 0.028358 0 
          0.396398 0.0377713 0 
          0.4123 0.0313495 0 
          0.426718 0.0186896 0 
          0.422188 0.0248412 0 
          0.432263 0.00156879 0 
          0.435497 0.000904055 0 
          0.426328 0.0242663 0 
          0.43673 0.0105952 0 
          0.439566 0.00644064 0 
          0.440388 0.00862123 0 
          0.429614 0.0231724 0 
          0.441585 0.00503378 0 
          0.4401 0.013888 0 
          0.439364 0.0164323 0 
          0.447824 0.00357849 0 
          0.384709 0.033758 0 
          0.402451 0.0316896 0 
          0.411369 0.0295709 0 
          0.417147 0.0258707 0 
          0.428864 0.0219395 0 
          0.395482 0.0241999 0 
          0.436132 0.0169559 0 
          0.425894 0.0161203 0 
          0.399879 0.0138053 0 
          0.423837 0.00689335 0 
          0.43088 0.0068577 0 
          0.440003 0.00651241 0 
          0.424369 0.00600327 0 
          0.40831 0.00538818 0 
          0.416338 0.00466948 0 
          0.434849 0.00348216 0 
          0.42348 0.000144909 0 
          0.358492 0.0736932 0 
          0.361594 0.0710147 0 
          0.371129 0.058308 0 
          0.378619 0.0562196 0 
          0.374633 0.053894 0 
          0.385189 0.0482357 0 
          0.376609 0.0460882 0 
          0.409534 0.0350291 0 
          0.398117 0.0382799 0 
          0.431996 0.0221485 0 
          0.282209 0.0468745 0 
          0.267471 0.0803524 0 
          0.255174 0.0538285 0 
          0.26633 0.0163307 0 
          0.249502 0.0409264 0 
          0.240366 0.0808899 0 
          0.222467 0.0141424 0 
          0.254817 0.00672246 0 
          0.265714 0.0274497 0 
          0.274699 0.0790201 0 
          0.25669 0.062832 0 
          0.255786 0.0577679 0 
          0.291417 0.0303918 0 
          0.297249 0.0342485 0 
          0.299313 0.0473517 0 
          0.319144 0.00422449 0 
          0.347257 0.0455527 0 
          0.359916 0.0227543 0 
          0.356595 0.055192 0 
          0.365522 0.0466144 0 
          0.371884 0.0172534 0 
          0.372828 0.00175071 0 
          0.0240784 0.0812731 0 
          0.112811 0.0225994 0 
          0.0657974 0.0735255 0 
          0.0877798 0.103231 0 
          0.148449 0.00598644 0 
          0.0772234 0.0414314 0 
          0.0338281 0.091988 0 
          0.064797 0.0409933 0 
          0.0039698 0.0417988 0 
          0.14987 0.0904759 0 
          0.129867 0.0910531 0 
          0.0385823 0.0213113 0 
          0.119647 0.0572852 0 
          0.0533756 0.101773 0 
          0.0778433 0.0597483 0 
          0.167633 0.0508312 0 
          0.18851 0.0228018 0 
          0.189977 0.074824 0 
          0.203106 0.0442021 0 
          0.213579 0.0160933 0 
          0.254395 0.124532 0 
          0.230677 0.157169 0 
          0.266774 0.104751 0 
          0.281394 0.0978221 0 
          0.218631 0.113326 0 
          0.313403 0.0948592 0 
          0.315034 0.0865601 0 
          0.265077 0.0955004 0 
          0.222193 0.105792 0 
          0.328269 0.0933393 0 
          0.339368 0.0829998 0 
          0.328643 0.0663687 0 
          0.340801 0.0865149 0 
          0.320824 0.0683043 0 
          0.143457 0.160988 0 
          0.136064 0.142325 0 
          0.157634 0.181039 0 
          0.158731 0.152593 0 
          0.0878156 0.143714 0 
          0.0725904 0.130772 0 
          0.0613797 0.1288 0 
          0.186268 0.157106 0 
          0.0219879 0.124212 0 
          0.197397 0.121419 0 
          0.116063 0.11469 0 
          0.195326 0.166993 0 
          0.209919 0.147537 0 
          0.329598 0.0411805 0 
          0.316018 0.034586 0 
          0.373267 0.0325054 0 
          0.324947 0.0286819 0 
          0.320821 0.0288701 0 
          0.304069 0.0234907 0 
          0.315365 0.0215684 0 
          0.376535 0.0336598 0 
          0.365227 0.0193899 0 
          0.356594 0.0173707 0 
          0.376971 0.0184631 0 
          0.349926 0.013617 0 
          0.383207 0.0140321 0 
          0.386946 0.00868973 0 
          0.390415 0.00307826 0 
          0.384527 0.000768936 0 
          0.367643 -0.00125628 0 
          0.276921 0.107817 0 
          0.306937 0.096385 0 
          0.308019 0.0938955 0 
          0.318261 0.0995005 0 
          0.32356 0.0935006 0 
          0.292381 0.0892628 0 
          0.317975 0.0858132 0 
          0.321072 0.0990175 0 
          0.287674 0.0860261 0 
          0.326765 0.0812381 0 
          0.340605 0.0816343 0 
          0.335184 0.0693687 0 
          0.319522 0.106484 0 
          0.322981 0.0639394 0 
          0.309501 0.0556269 0 
          0.364844 0.049788 0 
          0.357146 0.0485216 0 
          0.362073 0.0419532 0 
          0.180845 0.0361724 0 
          0.153965 0.0478875 0 
          0.205218 0.0335197 0 
          0.176661 0.04383 0 
          0.20475 0.036496 0 
          0.218936 0.0316981 0 
          0.229621 0.0370843 0 
          0.16384 0.0215216 0 
          0.185929 0.0236394 0 
          0.145971 0.0164146 0 
          0.197215 0.0230725 0 
          0.161747 0.0147446 0 
          0.19032 0.0179425 0 
          0.26354 0.0393345 0 
          0.271597 0.0239737 0 
          0.263838 0.0222208 0 
          0.270504 0.0211383 0 
          0.262624 0.019867 0 
          0.197383 0.00205316 0 
          0.168801 0.114316 0 
          0.195066 0.0944265 0 
          0.208676 0.114943 0 
          0.216403 0.0966385 0 
          0.20787 0.128466 0 
          0.186995 0.0777358 0 
          0.244282 0.103079 0 
          0.236877 0.135998 0 
          0.241831 0.071859 0 
          0.254373 0.124812 0 
          0.264204 0.098925 0 
          0.271212 0.0796287 0 
          0.248141 0.0616993 0 
          0.265547 0.106017 0 
          0.195188 0.0554686 0 
          0.238144 0.0580346 0 
          0.22186 0.055378 0 
          0.244927 0.182631 0 
          0.246433 0.180403 0 
          0.21047 0.214251 0 
          0.253219 0.173208 0 
          0.255561 0.170315 0 
          0.225093 0.19307 0 
          0.267632 0.157846 0 
          0.255 0.16845 0 
          0.28096 0.145647 0 
          0.19843 0.210153 0 
          0.265965 0.156881 0 
          0.202609 0.204211 0 
          0.226107 0.185827 0 
          0.26969 0.152032 0 
          0.281684 0.141582 0 
          0.27863 0.140472 0 
          0.320345 0.107303 0 
          0.29782 0.12 0 
          0.0038506 0.31274 0 
          0.117755 0.279596 0 
          0.0432764 0.298406 0 
          0.120401 0.268346 0 
          0.00282358 0.29358 0 
          0.145495 0.25135 0 
          0.0629928 0.276357 0 
          0.100862 0.258518 0 
          0.0234909 0.276374 0 
          0.157768 0.267654 0 
          0.151767 0.226865 0 
          0.167539 0.240621 0 
          0.141152 0.227676 0 
          0.101629 0.235398 0 
          0.171815 0.252115 0 
          0.176608 0.243169 0 
          0.140832 0.212276 0 
          0.0257448 0.225606 0 
          0.118362 0.214959 0 
          0.19901 0.182882 0 
          0.18552 0.239312 0 
          0.151605 0.276171 0 
          0.15435 0.269909 0 
          0.189244 0.233849 0 
          0.223977 0.171039 0 
          0.174661 0.26524 0 
          0.176303 0.168992 0 
          0.181677 0.254896 0 
          0.217324 0.204065 0 
          0.224766 0.189529 0 
          0.210076 0.152409 0 
          0.258652 0.140516 0 
          0.123226 0.340864 0 
          0.109971 0.356426 0 
          0.0516049 0.402587 0 
          0.0178601 0.411869 0 
          0.124144 0.33525 0 
          0.105496 0.354593 0 
          0.0834289 0.358586 0 
          0.103926 0.343039 0 
          0.0981393 0.347684 0 
          0.0872488 0.354572 0 
          0.145725 0.30649 0 
          0.132175 0.314071 0 
          0.109255 0.32119 0 
          0.0413569 0.345633 0 
          0.160078 0.282457 0 
          0.0839996 0.319346 0 
          0.0229166 0.336865 0 
          0.100422 0.304926 0 
          0.132368 0.292085 0 
          0.172223 0.26245 0 
          0.162384 0.283995 0 
          0.0538297 -0.420532 0 
          0.00841214 -0.439436 0 
          0.106679 -0.337985 0 
          0.101547 -0.341476 0 
          0.0709965 -0.423831 0 
          0.0324711 -0.44583 0 
          0.00267808 -0.471828 0 
          0.0849477 -0.344764 0 
          0.0750791 -0.380995 0 
          0.00125546 -0.489971 0 
          0.0518148 -0.460692 0 
          0.0448518 -0.472705 0 
          0.055143 -0.452004 0 
          0.0365821 -0.489323 0 
          0.125294 -0.152566 0 
          0.147859 -0.205159 0 
          0.11967 -0.197469 0 
          0.125002 -0.266019 0 
          0.0939369 -0.196966 0 
          0.0663975 -0.177524 0 
          0.0978939 -0.266116 0 
          0.0757189 -0.228613 0 
          0.0687379 -0.23352 0 
          0.040643 -0.179462 0 
          0.0266783 -0.159629 0 
          0.0587317 -0.412921 0 
          0.0517983 -0.419933 0 
          0.0319671 -0.498216 0 
          0.0444574 -0.463683 0 
          0.0280084 -0.403047 0 
          0.0384828 -0.445431 0 
          0.0331833 -0.497074 0 
          0.0351284 -0.478084 0 
          0.0248105 -0.436024 0 
          0.0240279 -0.514926 0 
          0.0261388 -0.49455 0 
          -0.0160272 -0.349121 0 
          0.0212761 -0.479252 0 
          0.0146992 -0.465422 0 
          0.012265 -0.466202 0 
          0.0103124 -0.490658 0 
          -0.0218459 -0.164244 0 
          -0.0231342 -0.178268 0 
          0.0367769 -0.23856 0 
          -0.0328123 -0.185979 0 
          -0.0864034 -0.136487 0 
          -0.114983 -0.129613 0 
          -0.120752 -0.133682 0 
          0.00811826 -0.263839 0 
          -0.0521322 -0.200935 0 
          -0.0290611 -0.230833 0 
          -0.0265384 -0.245041 0 
          -0.111039 -0.111665 0 
          -0.0812796 -0.113536 0 
          -0.0269589 -0.280978 0 
          -0.166948 -0.096528 0 
          -0.0559629 -0.253922 0 
          -0.119619 -0.103115 0 
          -0.0673797 -0.250532 0 
          -0.181132 -0.114678 0 
          -0.0595794 -0.271992 0 
          -0.16539 -0.137638 0 
          -0.213026 -0.0816865 0 
          -0.0912168 -0.105421 0 
          -0.111564 -0.100999 0 
          0.110899 -0.0658866 0 
          0.0932857 -0.0923454 0 
          0.0945911 -0.074449 0 
          0.0499964 -0.0836421 0 
          0.108506 -0.0632559 0 
          0.0770409 -0.0597971 0 
          0.129154 -0.0972101 0 
          0.100228 -0.116148 0 
          0.0690913 -0.112391 0 
          0.109454 -0.124446 0 
          0.033119 -0.10231 0 
          0.00817388 -0.111205 0 
          -0.014039 -0.0916025 0 
          -0.0246335 -0.0847081 0 
          0.14229 -0.144964 0 
          -0.0190172 -0.101108 0 
          0.0778255 -0.0274334 0 
          0.0373853 -0.0220846 0 
          0.0392177 -0.0254516 0 
          -0.0487002 -0.0138547 0 
          -0.0226653 -0.0246524 0 
          -0.0243636 -0.0250785 0 
          0.0604184 -0.0136012 0 
          0.0547611 -0.0143051 0 
          0.091296 -0.01494 0 
          0.0764038 -0.0316806 0 
          0.0971631 -0.00245284 0 
          0.104478 -0.00188691 0 
          0.100836 -0.0354233 0 
          0.115905 -0.0378688 0 
          -0.0492618 -0.00107184 0 
          -0.0938957 -0.0560063 0 
          -0.155017 -0.0640421 0 
          -0.101526 -0.0844576 0 
          -0.152949 -0.0886144 0 
          -0.165822 -0.0682301 0 
          -0.083565 -0.0815802 0 
          -0.160898 -0.0731175 0 