<?xml version="1.0"?>
<VTKFile type="UnstructuredGrid" version="0.1" byte_order="LittleEndian">
  <UnstructuredGrid>
    <Piece NumberOfPoints="1000" NumberOfCells="1000">
      <Points>
        <DataArray name="Position" type="Float64" NumberOfComponents="3" Format="ascii">
          0.000587118 0.00223893 0.0
          0.112086 0.0321561 0.0
          0.117262 0.0259304 0.0
          0.128173 0.0194189 0.0
          0.213385 0.0482853 0.0
          0.179099 0.0518427 0.0
          0.123147 0.00563142 0.0
          0.00410418 0.0520762 0.0
          0.0816529 0.0447097 0.0
          0.110085 0.0700711 0.0
          0.0884579 0.0728552 0.0
          0.0177136 0.0778402 0.0
          0.127078 0.0842315 0.0
          0.0453662 0.0937343 0.0
          0.205031 0.104339 0.0
          0.0348452 0.109173 0.0
          0.00469225 0.115616 0.0
          0.130297 0.118965 0.0
          0.494808 0.0710554 0.0
          0.497272 0.0179988 0.0
          0.471176 0.0487974 0.0
          0.441953 0.0248221 0.0
          0.436945 0.0653122 0.0
          0.429912 0.0703072 0.0
          0.433179 0.0714296 0.0
          0.480644 0.0859964 0.0
          0.412201 0.00665524 0.0
          0.48708 0.0913728 0.0
          0.407091 0.0878499 0.0
          0.373496 0.0539716 0.0
          0.427579 0.0947347 0.0
          0.360215 0.0356638 0.0
          0.406819 0.0949235 0.0
          0.346951 0.0850133 0.0
          0.305692 0.0116621 0.0
          0.293099 0.047367 0.0
          0.466575 0.114753 0.0
          0.276681 0.102856 0.0
          0.265998 0.068797 0.0
          0.450982 0.121098 0.0
          0.251016 0.0347199 0.0
          0.0605251 0.131821 0.0
          0.0735412 0.14142 0.0
          0.0761015 0.194762 0.0
          0.225793 0.205296 0.0
          0.209511 0.222739 0.0
          0.0690737 0.218927 0.0
          0.0933666 0.224687 0.0
          0.218533 0.242174 0.0
          0.487532 0.126111 0.0
          0.451995 0.154402 0.0
          0.456567 0.163391 0.0
          0.415038 0.167439 0.0
          0.325687 0.14688 0.0
          0.494766 0.211503 0.0
          0.408319 0.210213 0.0
          0.313463 0.146982 0.0
          0.364252 0.212315 0.0
          0.304142 0.133936 0.0
          0.286839 0.188515 0.0
          0.269545 0.171755 0.0
          0.263263 0.146936 0.0
          0.436886 0.248905 0.0
          0.269507 0.249678 0.0
          0.743612 0.0745577 0.0
          0.731144 0.0790435 0.0
          0.743231 0.00143747 0.0
          0.729881 0.0736005 0.0
          0.695875 0.0251145 0.0
          0.691485 0.0701236 0.0
          0.698673 0.0120619 0.0
          0.677432 0.0787203 0.0
          0.683802 0.0796982 0.0
          0.665573 0.0583491 0.0
          0.625739 0.00149521 0.0
          0.623351 0.0421959 0.0
          0.620772 0.0434498 0.0
          0.60626 0.0963379 0.0
          0.584653 0.00759238 0.0
          0.577264 0.0621735 0.0
          0.57819 0.0647968 0.0
          0.558777 0.119773 0.0
          0.520174 0.00571348 0.0
          0.51375 0.0442636 0.0
          0.502861 0.0894066 0.0
          0.972156 0.111589 0.0
          0.967259 0.0453283 0.0
          0.93863 0.0484063 0.0
          0.941421 0.0291162 0.0
          0.902302 0.00347631 0.0
          0.871941 0.0656885 0.0
          0.85133 0.00621506 0.0
          0.848933 0.0839836 0.0
          0.847997 0.0710458 0.0
          0.846326 0.0996434 0.0
          0.848919 0.00664959 0.0
          0.839481 0.0197125 0.0
          0.843982 0.117601 0.0
          0.790671 0.101691 0.0
          0.791276 0.0551256 0.0
          0.780927 0.0980437 0.0
          0.756831 0.0723294 0.0
          0.745549 0.209303 0.0
          0.744537 0.165796 0.0
          0.71185 0.173608 0.0
          0.588569 0.172643 0.0
          0.566235 0.150641 0.0
          0.577284 0.237748 0.0
          0.536067 0.159943 0.0
          0.538468 0.222045 0.0
          0.526261 0.206458 0.0
          0.514522 0.143796 0.0
          0.987938 0.233167 0.0
          0.993754 0.199335 0.0
          0.958187 0.232658 0.0
          0.96432 0.234213 0.0
          0.95268 0.21687 0.0
          0.917341 0.196491 0.0
          0.925267 0.150224 0.0
          0.914036 0.196437 0.0
          0.85717 0.207708 0.0
          0.861923 0.17035 0.0
          0.801858 0.246272 0.0
          0.777585 0.212192 0.0
          0.763723 0.211008 0.0
          0.156744 0.250346 0.0
          0.114207 0.253618 0.0
          0.160349 0.274058 0.0
          0.245367 0.295699 0.0
          0.103654 0.28755 0.0
          0.0756947 0.30593 0.0
          0.0253487 0.309419 0.0
          0.246222 0.327124 0.0
          0.16507 0.336295 0.0
          0.141157 0.334495 0.0
          0.0965568 0.357907 0.0
          0.409521 0.254194 0.0
          0.428266 0.270419 0.0
          0.357762 0.280063 0.0
          0.472344 0.303263 0.0
          0.310639 0.279291 0.0
          0.434359 0.325247 0.0
          0.382173 0.342777 0.0
          0.276705 0.302795 0.0
          0.356479 0.348628 0.0
          0.355695 0.343372 0.0
          0.426403 0.35573 0.0
          0.325697 0.352367 0.0
          0.210843 0.378396 0.0
          0.156812 0.381067 0.0
          0.217074 0.424263 0.0
          0.0351724 0.413424 0.0
          0.186377 0.44301 0.0
          0.156695 0.439422 0.0
          0.153441 0.447186 0.0
          0.125216 0.4545 0.0
          0.157955 0.462213 0.0
          0.228073 0.482299 0.0
          0.045091 0.479951 0.0
          0.469897 0.382296 0.0
          0.466669 0.377224 0.0
          0.43025 0.380648 0.0
          0.372365 0.378324 0.0
          0.471227 0.42601 0.0
          0.322229 0.395339 0.0
          0.34285 0.415582 0.0
          0.433241 0.442145 0.0
          0.291058 0.403837 0.0
          0.262468 0.39424 0.0
          0.265782 0.394454 0.0
          0.263703 0.413353 0.0
          0.410778 0.484004 0.0
          0.398986 0.484582 0.0
          0.255148 0.392965 0.0
          0.476548 0.496668 0.0
          0.314641 0.497379 0.0
          0.271867 0.493676 0.0
          0.733514 0.268132 0.0
          0.686908 0.306901 0.0
          0.687865 0.30938 0.0
          0.682302 0.310995 0.0
          0.683059 0.258251 0.0
          0.696579 0.329614 0.0
          0.734322 0.340719 0.0
          0.670625 0.338297 0.0
          0.624814 0.251225 0.0
          0.601997 0.268079 0.0
          0.587636 0.256185 0.0
          0.559849 0.290467 0.0
          0.558808 0.345208 0.0
          0.553984 0.250916 0.0
          0.542355 0.347049 0.0
          0.534154 0.35868 0.0
          0.597366 0.361607 0.0
          0.992668 0.294406 0.0
          0.963621 0.317531 0.0
          0.929942 0.323295 0.0
          0.889362 0.3332 0.0
          0.892198 0.316428 0.0
          0.887612 0.279093 0.0
          0.874939 0.291536 0.0
          0.854303 0.266291 0.0
          0.834911 0.266343 0.0
          0.814433 0.331736 0.0
          0.823002 0.288318 0.0
          0.782776 0.369512 0.0
          0.766739 0.329919 0.0
          0.748324 0.395736 0.0
          0.72294 0.38722 0.0
          0.722403 0.459747 0.0
          0.712349 0.462479 0.0
          0.734421 0.473725 0.0
          0.59097 0.38867 0.0
          0.58289 0.465014 0.0
          0.556099 0.431156 0.0
          0.540186 0.446057 0.0
          0.525259 0.409737 0.0
          0.573833 0.492149 0.0
          0.557677 0.490334 0.0
          0.506778 0.490792 0.0
          0.711555 0.497149 0.0
          0.52341 0.495212 0.0
          0.500107 0.376716 0.0
          0.987663 0.472904 0.0
          0.980786 0.462547 0.0
          0.89601 0.417704 0.0
          0.861404 0.44058 0.0
          0.895717 0.391475 0.0
          0.824975 0.462459 0.0
          0.850292 0.390218 0.0
          0.843381 0.381307 0.0
          0.798411 0.447118 0.0
          0.794015 0.447666 0.0
          0.783377 0.386328 0.0
          0.766931 0.428074 0.0
          0.760166 0.379024 0.0
          0.756905 0.455204 0.0
          0.790696 0.499134 0.0
          1.24366 0.0031792 0.0
          1.23428 0.0859663 0.0
          1.23525 0.0577292 0.0
          1.21404 0.0846957 0.0
          1.20708 0.0606044 0.0
          1.21202 0.0124754 0.0
          1.19248 0.0512454 0.0
          1.15151 0.0171297 0.0
          1.10146 0.103462 0.0
          1.09706 0.095148 0.0
          1.10034 0.061012 0.0
          1.09289 0.102694 0.0
          1.08939 0.106752 0.0
          1.07817 0.0262076 0.0
          1.06712 0.0595724 0.0
          1.06382 0.0359904 0.0
          1.04994 0.0743322 0.0
          1.02257 0.0275974 0.0
          1.01409 0.0171993 0.0
          1.49181 0.110985 0.0
          1.48132 0.121964 0.0
          1.48298 0.0296996 0.0
          1.48401 0.0481272 0.0
          1.4723 0.00334731 0.0
          1.47014 0.00189907 0.0
          1.45884 0.0422705 0.0
          1.44744 0.0212193 0.0
          1.44716 0.0250627 0.0
          1.42195 0.119681 0.0
          1.41946 0.0252031 0.0
          1.39063 0.0951899 0.0
          1.39066 0.11988 0.0
          1.3075 0.0188802 0.0
          1.29358 0.0561263 0.0
          1.27486 0.0778374 0.0
          1.27155 0.110002 0.0
          1.1981 0.19629 0.0
          1.19598 0.146904 0.0
          1.17468 0.180455 0.0
          1.18515 0.146668 0.0
          1.16272 0.186941 0.0
          1.15768 0.132897 0.0
          1.10254 0.141546 0.0
          1.07471 0.146572 0.0
          1.05174 0.213228 0.0
          1.04694 0.168413 0.0
          1.04883 0.131818 0.0
          1.03485 0.136999 0.0
          1.49164 0.176837 0.0
          1.47269 0.188321 0.0
          1.4917 0.165062 0.0
          1.45461 0.23274 0.0
          1.45813 0.24085 0.0
          1.46227 0.164029 0.0
          1.45073 0.204932 0.0
          1.43573 0.235964 0.0
          1.43821 0.199244 0.0
          1.43442 0.194239 0.0
          1.39801 0.246154 0.0
          1.41459 0.164082 0.0
          1.39521 0.1569 0.0
          1.36419 0.160887 0.0
          1.34659 0.199423 0.0
          1.3512 0.161022 0.0
          1.34554 0.160496 0.0
[...]
      <PointData Scalars="scalars">
        <DataArray type="Float64" Name="velocity" NumberOfComponents="3" Format="ascii">
          0.000543397 -0.00214373 0 
          0.0999385 -0.029612 0 
          0.10441 -0.0238119 0 
          0.113742 -0.0177108 0 
          0.183512 -0.0404888 0 
          0.155812 -0.0451549 0 
          0.109502 -0.00515918 0 
          0.00378622 -0.0497067 0 
          0.0734779 -0.0418158 0 
          0.0978393 -0.064429 0 
          0.0791684 -0.067788 0 
          0.0162235 -0.0740723 0 
          0.112031 -0.0765014 0 
          0.0410679 -0.0885813 0 
          0.175041 -0.0878698 0 
          0.0315696 -0.103356 0 
          0.0042902 -0.109945 0 
          0.113885 -0.107507 0 
          0.360684 -0.0339278 0 
          0.365103 -0.00865488 0 
          0.351289 -0.0249828 0 
          0.33745 -0.0137477 0 
          0.332645 -0.036271 0 
          0.328495 -0.0396535 0 
          0.330154 -0.0399681 0 
          0.352524 -0.0425299 0 
          0.321404 -0.00396185 0 
          0.354868 -0.0443381 0 
          0.314414 -0.0519913 0 
          0.297122 -0.0345377 0 
          0.324934 -0.0534263 0 
          0.289622 -0.0235145 0 
          0.31357 -0.0561262 0 
          0.2786 -0.057005 0 
          0.25378 -0.0085341 0 
          0.244168 -0.0352311 0 
          0.342071 -0.0584796 0 
          0.229705 -0.0780317 0 
          0.223686 -0.0533699 0 
          0.333567 -0.0641256 0 
          0.21333 -0.0276987 0 
          0.0540768 -0.123647 0 
          0.0652373 -0.131838 0 
          0.0662726 -0.180063 0 
          0.18368 -0.165105 0 
          0.169957 -0.182326 0 
          0.0597287 -0.202265 0 
          0.0796846 -0.204848 0 
          0.174356 -0.194726 0 
          0.3499 -0.0605483 0 
          0.328362 -0.0806363 0 
          0.328683 -0.0839921 0 
          0.307577 -0.0951235 0 
          0.259118 -0.101315 0 
          0.332256 -0.0951241 0 
          0.295004 -0.11877 0 
          0.251192 -0.103711 0 
          0.271602 -0.132212 0 
          0.246353 -0.096414 0 
          0.228564 -0.137812 0 
          0.218765 -0.130085 0 
          0.216726 -0.113184 0 
          0.297368 -0.128097 0 
          0.208259 -0.184215 0 
          0.43963 -0.0149459 0 
          0.436459 -0.0167154 0 
          0.445583 -0.000296862 0 
          0.437096 -0.0156839 0 
          0.434499 -0.00627759 0 
          0.429038 -0.0175434 0 
          0.435674 -0.00299549 0 
          0.42422 -0.020736 0 
          0.425678 -0.0204756 0 
          0.423855 -0.0161949 0 
          0.415262 -0.000487608 0 
          0.412874 -0.0136911 0 
          0.411947 -0.0142164 0 
          0.40052 -0.0325201 0 
          0.401161 -0.00282799 0 
          0.395236 -0.0233111 0 
          0.395291 -0.024204 0 
          0.379731 -0.0467162 0 
          0.375539 -0.00258234 0 
          0.371353 -0.0201609 0 
          0.362215 -0.0415125 0 
          0.455325 -0.00279853 0 
          0.468092 -0.00133286 0 
          0.466615 -0.00237943 0 
          0.46859 -0.00138643 0 
          0.467153 -0.000266551 0 
          0.45931 -0.00637897 0 
          0.462223 -0.000718404 0 
          0.45363 -0.00955046 0 
          0.455907 -0.00817648 0 
          0.449922 -0.0114499 0 
          0.461937 -0.000781112 0 
          0.460402 -0.00245018 0 
          0.44503 -0.0136117 0 
          0.442164 -0.0161202 0 
          0.450587 -0.00888249 0 
          0.441496 -0.0163434 0 
          0.44239 -0.0136586 0 
          0.397504 -0.0381886 0 
          0.415718 -0.0315945 0 
          0.407053 -0.037943 0 
          0.376536 -0.0596626 0 
          0.375448 -0.0566774 0 
          0.349136 -0.0810862 0 
          0.362338 -0.0656889 0 
          0.343829 -0.0868357 0 
          0.345203 -0.0847705 0 
          0.35788 -0.0634316 0 
          0.402605 -0.00289029 0 
          0.421342 -0.0019353 0 
          0.402391 -0.00700967 0 
          0.401606 -0.00617253 0 
          0.411288 -0.00742598 0 
          0.420527 -0.0114198 0 
          0.440992 -0.00832353 0 
          0.420381 -0.0118492 0 
          0.410837 -0.0204261 0 
          0.428554 -0.016797 0 
          0.384506 -0.032718 0 
          0.400312 -0.0331704 0 
          0.399114 -0.0352863 0 
          0.128153 -0.216219 0 
          0.0951036 -0.22688 0 
          0.128826 -0.234351 0 
          0.184856 -0.223327 0 
          0.084969 -0.257043 0 
          0.0622133 -0.276789 0 
          0.021365 -0.285086 0 
          0.179384 -0.242768 0 
          0.125502 -0.280093 0 
          0.109153 -0.285916 0 
          0.0752438 -0.31508 0 
          0.283827 -0.139611 0 
          0.286727 -0.140139 0 
          0.251832 -0.170452 0 
          0.289562 -0.135187 0 
          0.227206 -0.187823 0 
          0.267363 -0.157913 0 
          0.241161 -0.187355 0 
          0.2026 -0.214874 0 
          0.228686 -0.201711 0 
          0.230316 -0.199957 0 
          0.250536 -0.170901 0 
          0.214147 -0.218187 0 
          0.14784 -0.29039 0 
          0.114295 -0.314692 0 
          0.140858 -0.312938 0 
          0.0272845 -0.369325 0 
          0.12064 -0.339817 0 
          0.105297 -0.352403 0 
          0.10214 -0.358541 0 
          0.0849028 -0.375114 0 
          0.101875 -0.365128 0 
          0.128491 -0.331811 0 
          0.0322292 -0.416665 0 
          0.246871 -0.156305 0 
          0.249276 -0.156878 0 
          0.238785 -0.175747 0 
          0.222541 -0.204687 0 
          0.217476 -0.162061 0 
          0.197075 -0.237664 0 
          0.195532 -0.232485 0 
          0.200784 -0.184923 0 
          0.18139 -0.258877 0 
          0.171876 -0.271388 0 
          0.173363 -0.269562 0 
          0.16652 -0.27939 0 
          0.167099 -0.201663 0 
          0.165565 -0.20929 0 
          0.168743 -0.275035 0 
          0.157878 -0.161007 0 
          0.145125 -0.269311 0 
          0.137838 -0.30122 0 
          0.363978 -0.0484423 0 
          0.332765 -0.0643459 0 
          0.33117 -0.0643707 0 
          0.329327 -0.066062 0 
          0.362467 -0.0586171 0 
          0.317458 -0.0640466 0 
          0.31204 -0.0549148 0 
          0.307996 -0.0722589 0 
          0.35474 -0.0718007 0 
          0.341056 -0.081671 0 
          0.343529 -0.0830067 0 
          0.319419 -0.099634 0 
          0.286629 -0.110788 0 
          0.336956 -0.0912868 0 
          0.282446 -0.117426 0 
          0.27341 -0.122692 0 
          0.281145 -0.0987952 0 
          0.360825 -0.00240782 0 
          0.34187 -0.00725086 0 
          0.336317 -0.0132168 0 
          0.326571 -0.0209777 0 
          0.340886 -0.0200323 0 
          0.369359 -0.019638 0 
          0.359648 -0.0224153 0 
          0.376253 -0.0248996 0 
          0.374837 -0.0283873 0 
          0.324469 -0.036133 0 
          0.358825 -0.0320627 0 
          0.289463 -0.04462 0 
          0.323 -0.0464483 0 
          0.263075 -0.0536209 0 
          0.270481 -0.0602124 0 
          0.193096 -0.0602732 0 
          0.189992 -0.0630859 0 
          0.175856 -0.056406 0 
          0.259335 -0.103916 0 
          0.187719 -0.109398 0 
          0.219899 -0.120815 0 
          0.205489 -0.128351 0 
          0.235488 -0.133224 0 
          0.158391 -0.112064 0 
          0.160961 -0.119388 0 
          0.162207 -0.143898 0 
          0.146804 -0.0615423 0 
          0.157032 -0.135324 0 
          0.255873 -0.140577 0 
          0.174456 -0.00244831 0 
          0.188021 -0.00374054 0 
          0.242192 -0.0203081 0 
          0.215224 -0.0273334 0 
          0.270868 -0.0204185 0 
          0.188404 -0.0349166 0 
          0.27129 -0.0299056 0 
          0.280162 -0.0313064 0 
          0.207376 -0.0413675 0 
          0.206734 -0.0423902 0 
          0.273397 -0.0449147 0 
          0.229284 -0.0491519 0 
          0.279615 -0.0502411 0 
          0.197965 -0.0511814 0 
          0.141001 -0.0413643 0 
          0.452091 0.000545543 0 
          0.445352 0.0136727 0 
          0.449769 0.00931946 0 
          0.448582 0.0121215 0 
          0.453577 0.00841672 0 
          0.456908 0.00181269 0 
          0.456737 0.00655662 0 
          0.464157 0.00167952 0 
          0.455488 0.00614365 0 
          0.457759 0.00537518 0 
          0.464096 0.00362822 0 
          0.456152 0.00549261 0 
          0.455285 0.00544636 0 
          0.468975 0.00116938 0 
          0.465899 0.00217633 0 
          0.468792 0.00124451 0 
          0.463958 0.00184957 0 
          0.47022 0.000195466 0 
          0.470803 2.69617e-05 0 
          0.370025 0.0460718 0 
          0.372298 0.0489588 0 
          0.382237 0.0122715 0 
          0.380729 0.0198492 0 
          0.387321 0.00134995 0 
          0.388207 0.000761327 0 
          0.391334 0.0162034 0 
          0.39681 0.00790156 0 
          0.396773 0.00931458 0 
          0.394146 0.0399648 0 
          0.406876 0.00858056 0 
          0.408768 0.0288114 0 
          0.403875 0.0360189 0 
          0.439339 0.00428153 0 
          0.439436 0.0118497 0 
          0.439975 0.0150211 0 
          0.434013 0.0206801 0 
          0.413898 0.0242112 0 
          0.434209 0.0185142 0 
          0.42334 0.0194551 0 
          0.435498 0.0172993 0 
          0.42151 0.0184674 0 
          0.44283 0.0130885 0 
          0.444 0.00839513 0 
          0.443468 0.00593985 0 
          0.413842 0.0052695 0 
          0.435583 0.00376007 0 
          0.449293 0.00314263 0 
          0.447773 0.00204023 0 
          0.355857 0.0716145 0 
          0.359328 0.0715927 0 
          0.358909 0.0672532 0 
          0.34949 0.0812469 0 
          0.345193 0.0845354 0 
          0.369893 0.0611972 0 
          0.361072 0.0720091 0 
          0.353481 0.0772855 0 
          0.366889 0.0674961 0 
          0.369761 0.0652028 0 
          0.358349 0.0703013 0 
          0.385353 0.0525186 0 
          0.39312 0.0471883 0 
          0.400189 0.0432088 0 
          0.390338 0.0488475 0 
          0.403304 0.0411903 0 
          0.404797 0.0401909 0 
          0.412735 0.0347212 0 
          0.369301 0.0537269 0 
          0.387554 0.0456005 0 
          0.390053 0.0438785 0 
          0.408035 0.0371665 0 
          0.41917 0.030408 0 
          0.413363 0.0324572 0 
          0.427497 0.0244648 0 
          0.255836 0.0741367 0 
          0.25994 0.0632578 0 
          0.280045 0.0316676 0 
          0.246409 0.0644823 0 
          0.295774 0.0177931 0 
          0.295812 0.00463997 0 
          0.310806 0.0543247 0 
          0.307717 0.0703044 0 
          0.320421 0.0510631 0 
          0.322741 0.0613615 0 
          0.340757 0.0203077 0 
          0.35473 0.0205513 0 
          0.361713 0.033325 0 
          0.112078 0.0246482 0 
          0.100893 0.0812853 0 
          0.117279 0.0973821 0 
          0.134373 0.023815 0 
          0.125473 0.0303541 0 
          0.00425216 0.0171889 0 
          0.0965314 0.053971 0 
          0.019983 0.0925305 0 
          0.100213 0.0767556 0 
          0.0385828 0.0728427 0 
          0.147049 0.0527532 0 
          0.00997605 0.0294051 0 
          0.199076 0.053617 0 
          0.19672 0.0601787 0 
          0.218099 0.0683722 0 
          0.22167 0.155709 0 
          0.253636 0.127305 0 
          0.268944 0.103149 0 
          0.289607 0.117894 0 
          0.298546 0.110364 0 
          0.308314 0.109033 0 
          0.24037 0.103733 0 
          0.30845 0.116678 0 
          0.325417 0.0925482 0 
          0.287804 0.0822029 0 
          0.345981 0.071695 0 
          0.330099 0.0977602 0 
          0.0242403 0.186545 0 
          0.0166499 0.203781 0 
          0.0200777 0.17027 0 
          0.0655635 0.16399 0 
          0.0580722 0.187855 0 
          0.145514 0.153521 0 
          0.156802 0.165499 0 
          0.0295426 0.151254 0 
          0.167432 0.191153 0 
          0.0494589 0.141046 0 
          0.179579 0.134454 0 
          0.178814 0.134993 0 
          0.105459 0.117769 0 
          0.150563 0.108645 0 
          0.0504226 0.113693 0 
          0.125133 0.109856 0 
          0.310739 0.0430786 0 
          0.339284 0.0430432 0 
          0.316079 0.0413885 0 
          0.328063 0.0423381 0 
          0.346873 0.0396827 0 
          0.316106 0.0348301 0 
          0.332075 0.0326533 0 
          0.331368 0.0320579 0 
          0.346941 0.031675 0 
          0.35471 0.0207662 0 
          0.360108 0.0195427 0 
          0.339626 0.0136947 0 
          0.342648 0.0115432 0 
          0.345158 0.0114807 0 
          0.289731 0.010858 0 
          0.362566 0.0126828 0 
          0.316102 0.0104301 0 
          0.377685 0.00918346 0 
          0.345193 0.00700857 0 
          0.30099 0.00576706 0 
          0.390208 0.0047785 0 
          0.381959 0.00173391 0 
          0.309775 -0.000653256 0 
          0.343968 -0.00028116 0 
          0.381287 3.34108e-05 0 
          0.380999 0.000351037 0 
          0.287077 0.112557 0 
          0.312645 0.095546 0 
          0.314121 0.0781251 0 
          0.310113 0.0759393 0 
          0.341511 0.0733297 0 
          0.332123 0.0605618 0 
          0.345975 0.0582959 0 
          0.339488 0.0561997 0 
          0.333141 0.0950579 0 
          0.173842 0.0337677 0 
          0.212103 0.0485361 0 
          0.145722 0.0196846 0 
          0.245016 0.039665 0 
          0.248885 0.0276117 0 
          0.224389 0.0210227 0 
          0.202483 0.0144195 0 
          0.241686 0.0167281 0 
          0.174733 0.0100902 0 
          0.223251 0.012978 0 
          0.276724 0.0158466 0 
          0.231691 0.0100935 0 
          0.210489 0.00757604 0 
          0.182844 0.00567087 0 
          0.178474 0.00627851 0 
          0.191329 0.108773 0 
          0.203285 0.0897669 0 
          0.162163 0.0770224 0 
          0.166496 0.0778474 0 
          0.233763 0.096577 0 
          0.245182 0.100741 0 
          0.234374 0.136369 0 
          0.224777 0.0724478 0 
          0.165384 0.0649416 0 
          0.196002 0.0615564 0 
          0.257923 0.0652561 0 
          0.273608 0.0611411 0 
          0.279191 0.0588688 0 
          0.269247 0.0554259 0 
          0.283323 0.0582591 0 
          0.191212 0.238091 0 
          0.214493 0.214602 0 
          0.198811 0.230097 0 
          0.213861 0.214909 0 
          0.254083 0.172835 0 
          0.234736 0.188986 0 
          0.250691 0.168204 0 
          0.228194 0.188037 0 
          0.245962 0.171585 0 
          0.299252 0.12745 0 
          0.28225 0.140825 0 
          0.00729312 0.3091 0 
          0.100579 0.283833 0 
          0.045953 0.298063 0 
          0.0559057 0.29862 0 
          0.0462111 0.295184 0 
          0.031124 0.300322 0 
          0.0724761 0.280347 0 
          0.123785 0.25084 0 
          0.16509 0.251249 0 
          0.0929236 0.246024 0 
          0.172177 0.231699 0 
          0.120164 0.225758 0 
          0.179986 0.243034 0 
          0.0822889 0.222713 0 
          0.0891539 0.214439 0 
          0.167294 0.185202 0 
          0.163219 0.271995 0 
          0.15578 0.287602 0 
          0.197112 0.205435 0 
          0.202101 0.183032 0 
          0.217894 0.177573 0 
          0.202359 0.209186 0 
          0.161268 0.282569 0 
          0.236307 0.161644 0 
          0.196046 0.16361 0 
          0.202413 0.225824 0 
          0.213955 0.210874 0 
          0.224584 0.196457 0 
          0.217682 0.208192 0 
          0.230869 0.186215 0 
          0.237587 0.147055 0 
          0.247979 0.165018 0 
          0.246105 0.165634 0 
          0.236725 0.140682 0 
          0.198503 0.235054 0 
          0.107933 0.351124 0 
          0.116157 0.343964 0 
          0.0294681 0.388316 0 
          0.124464 0.328455 0 
          0.111798 0.335259 0 
          0.0929874 0.346169 0 
          0.0707416 0.357577 0 
          0.110199 0.334802 0 
          0.0468388 0.374173 0 
          0.0809845 0.349947 0 
          0.132598 0.324597 0 
          0.149279 0.300546 0 
          0.0887916 0.33205 0 
          0.0358488 0.337209 0 
          0.0346279 0.339574 0 
          0.15577 0.277755 0 
          0.160747 0.274545 0 
          0.118836 0.297348 0 
          0.0803206 0.31317 0 
          0.176181 0.257994 0 
          0.121285 -0.327727 0 
          0.0937423 -0.387938 0 
          0.0861126 -0.399872 0 
          0.087172 -0.398632 0 
          0.0629308 -0.417696 0 
          0.0484015 -0.423275 0 
          0.103079 -0.3638 0 
          0.011201 -0.458867 0 
          0.0923078 -0.374583 0 
          0.0931321 -0.36559 0 
          0.0730569 -0.423207 0 
          0.0609518 -0.43828 0 
          0.0852064 -0.391297 0 
          0.0827857 -0.391278 0 
          0.0796874 -0.383672 0 
          0.0724231 -0.421901 0 
          0.03145 -0.470819 0 
          0.0261158 -0.473778 0 
          0.0661525 -0.379603 0 
          0.0591434 -0.437106 0 
          0.0213385 -0.504524 0 
          0.140659 -0.17749 0 
          0.126597 -0.163347 0 
          0.141772 -0.184613 0 
          0.142578 -0.20715 0 
          0.0963411 -0.148998 0 
          0.132491 -0.216891 0 
          0.13455 -0.221169 0 
          0.10813 -0.192513 0 
          0.108212 -0.188643 0 
          0.102899 -0.182916 0 
          0.105226 -0.199167 0 
          0.0951688 -0.183309 0 
          0.131551 -0.270992 0 
          0.0786972 -0.164982 0 
          0.111037 -0.233155 0 
          0.115893 -0.243954 0 
          0.135938 -0.293936 0 
          0.099145 -0.229042 0 
          0.0691865 -0.174397 0 
          0.0805954 -0.267971 0 
          0.0457767 -0.21063 0 
          0.0748773 -0.314612 0 
          0.100945 -0.325331 0 
          0.0401847 -0.34481 0 
          0.012231 -0.514442 0 
          0.0299661 -0.500732 0 
          0.0192625 -0.344628 0 
          0.0193015 -0.365715 0 
          0.0342895 -0.434291 0 
          0.0323127 -0.434006 0 
          0.0195626 -0.518499 0 
          0.00882468 -0.38018 0 
          0.025324 -0.489518 0 
          0.0186538 -0.524318 0 
          -0.0375711 -0.314267 0 
          0.00807945 -0.466453 0 
          0.0137807 -0.509694 0 
          0.00606869 -0.552447 0 
          0.0100933 -0.495246 0 
          0.0113672 -0.160658 0 
          0.0270764 -0.207257 0 
          0.00725358 -0.199979 0 
          0.00956488 -0.230808 0 
          0.0227137 -0.260974 0 
          -0.0585064 -0.125448 0 
          -0.0196039 -0.242735 0 
          -0.107203 -0.115517 0 
          -0.122366 -0.113021 0 
          -0.156683 -0.11619 0 
          -0.152306 -0.11846 0 
          -0.175665 -0.0968312 0 
          -0.0724117 -0.254502 0 
          -0.158334 -0.146939 0 
          -0.173882 -0.0882498 0 
          -0.243626 -0.0761275 0 
          0.11833 -0.0996232 0 
          0.0809919 -0.0563474 0 
          0.0644804 -0.0660201 0 
          0.0669732 -0.0621782 0 
          0.0905621 -0.0982952 0 
          0.050889 -0.0749781 0 
          0.097574 -0.0612652 0 
          0.124076 -0.112042 0 
          0.133979 -0.119175 0 
          0.0611246 -0.115652 0 
          0.125433 -0.124601 0 
          0.128219 -0.131483 0 
          -0.00934723 -0.0764149 0 
          0.123513 -0.133251 0 
          0.0364154 -0.129641 0 
          -0.0550899 -0.0389677 0 
          -0.0246818 -0.0240441 0 
          0.0342102 -0.0170462 0 
          -0.0058513 -0.0276615 0 
          0.000712401 -0.00799007 0 
          0.0209954 -0.00356943 0 
          0.0842404 -0.0172431 0 
          0.0964351 -0.0308053 0 
          0.0331264 -0.0400369 0 
          0.103143 -0.0313643 0 
          -0.0366794 -0.0359519 0 
          0.0214097 -0.0436491 0 
          0.0796427 -0.0455389 0 
          -0.0293481 0.000110142 0 
          -0.0703513 -0.104081 0 
          -0.118982 -0.0695097 0 
          -0.0593192 -0.0693674 0 
          -0.117999 -0.0810141 0 
          -0.207187 -0.0684604 0 
          -0.21059 -0.0608223 0 
          -0.216735 -0.0585222 0 
          -0.215349 -0.0579981 0 
          -0.153453 -0.051856 0 
          -0.180203 -0.0412521 0 
          -0.0663815 -0.0422613 0 