<?xml version="1.0"?>
<VTKFile type="UnstructuredGrid" version="0.1" byte_order="LittleEndian">
  <UnstructuredGrid>
    <Piece NumberOfPoints="1000" NumberOfCells="1000">
      <Points>
        <DataArray name="Position" type="Float64" NumberOfComponents="3" Format="ascii">
          0.000435955 0.00299319 0.0
          0.0840773 0.0426025 0.0
          0.223637 0.0600703 0.0
          0.0879884 0.034334 0.0
          0.0962589 0.0256743 0.0
          0.161601 0.0626986 0.0
          0.135236 0.0678512 0.0
          0.0924315 0.0074534 0.0
          0.190655 0.0446402 0.0
          0.00305095 0.0695524 0.0
          0.0611044 0.0594368 0.0
          0.233353 0.0147454 0.0
          0.202621 0.0879561 0.0
          0.0826781 0.0927841 0.0
          0.066315 0.0967259 0.0
          0.013198 0.103875 0.0
          0.0956667 0.111222 0.0
          0.0339174 0.124874 0.0
          0.497955 0.0489199 0.0
          0.465608 0.00867205 0.0
          0.409733 0.0066862 0.0
          0.460069 0.0710477 0.0
          0.460963 0.0740115 0.0
          0.404639 0.0518422 0.0
          0.389121 0.0837221 0.0
          0.390266 0.0212365 0.0
          0.368609 0.0580677 0.0
          0.34385 0.0298899 0.0
          0.340309 0.0786565 0.0
          0.33458 0.0848727 0.0
          0.33732 0.0861199 0.0
          0.377562 0.1018 0.0
          0.319166 0.00810737 0.0
          0.396587 0.104933 0.0
          0.487025 0.10877 0.0
          0.383209 0.107875 0.0
          0.316153 0.106855 0.0
          0.287974 0.0665418 0.0
          0.333314 0.114334 0.0
          0.277008 0.0442095 0.0
          0.31613 0.115434 0.0
          0.267077 0.105673 0.0
          0.211522 0.130899 0.0
          0.155701 0.135553 0.0
          0.0260531 0.145487 0.0
          0.00349999 0.154227 0.0
          0.0983791 0.156869 0.0
          0.23399 0.168636 0.0
          0.0454467 0.175247 0.0
          0.241844 0.184301 0.0
          0.201956 0.187412 0.0
          0.0553402 0.187719 0.0
          0.207641 0.218245 0.0
          0.222009 0.237817 0.0
          0.446402 0.137429 0.0
          0.409291 0.167494 0.0
          0.454987 0.171999 0.0
          0.38509 0.148598 0.0
          0.429154 0.184532 0.0
          0.366751 0.136374 0.0
          0.476652 0.195142 0.0
          0.356393 0.183983 0.0
          0.353868 0.144706 0.0
          0.360806 0.194203 0.0
          0.326012 0.202035 0.0
          0.424523 0.237925 0.0
          0.251674 0.183378 0.0
          0.397364 0.246528 0.0
          0.731117 0.0685555 0.0
          0.708486 0.0745874 0.0
          0.709883 0.00652886 0.0
          0.708633 0.104573 0.0
          0.710095 0.0881187 0.0
          0.707588 0.00698969 0.0
          0.698727 0.0207669 0.0
          0.65602 0.108299 0.0
          0.654107 0.0587858 0.0
          0.646615 0.104712 0.0
          0.62265 0.0778541 0.0
          0.610487 0.0805617 0.0
          0.59918 0.0857167 0.0
          0.608352 0.00155705 0.0
          0.597752 0.079861 0.0
          0.565123 0.0275905 0.0
          0.562418 0.0770185 0.0
          0.567524 0.0132449 0.0
          0.550031 0.0868243 0.0
          0.555859 0.0877178 0.0
          0.538487 0.0646605 0.0
          0.707787 0.123426 0.0
          0.501868 0.00168322 0.0
          0.500218 0.0474678 0.0
          0.959401 0.102465 0.0
          0.954338 0.0943241 0.0
          0.955637 0.060447 0.0
          0.950704 0.101892 0.0
          0.947498 0.105995 0.0
          0.93217 0.0260926 0.0
          0.922166 0.0594489 0.0
          0.918004 0.0359448 0.0
          0.905743 0.0744474 0.0
          0.876692 0.0278147 0.0
          0.868118 0.0173686 0.0
          0.831375 0.113625 0.0
          0.822646 0.0462536 0.0
          0.7948 0.0497243 0.0
          0.79696 0.0298975 0.0
          0.758746 0.00360498 0.0
          0.731161 0.216368 0.0
          0.730496 0.177614 0.0
          0.655651 0.22536 0.0
          0.624943 0.224288 0.0
          0.64234 0.224953 0.0
          0.618501 0.17832 0.0
          0.588946 0.188425 0.0
          0.964009 0.140118 0.0
          0.922936 0.213103 0.0
          0.936588 0.145937 0.0
          0.911486 0.168601 0.0
          0.909148 0.13198 0.0
          0.89575 0.137562 0.0
          0.863115 0.235856 0.0
          0.863131 0.201604 0.0
          0.833718 0.236769 0.0
          0.840031 0.238039 0.0
          0.825545 0.221092 0.0
          0.787753 0.202024 0.0
          0.789367 0.154455 0.0
          0.784526 0.202117 0.0
          0.174111 0.263754 0.0
          0.0576467 0.257838 0.0
          0.161791 0.287079 0.0
          0.052468 0.289671 0.0
          0.0711837 0.296362 0.0
          0.1696 0.310833 0.0
          0.210762 0.315061 0.0
          0.120972 0.326075 0.0
          0.0877458 0.33287 0.0
          0.24622 0.345855 0.0
          0.124454 0.355952 0.0
          0.193614 0.374184 0.0
          0.473614 0.267898 0.0
          0.436932 0.254256 0.0
          0.48551 0.28695 0.0
          0.454252 0.284637 0.0
          0.350622 0.295177 0.0
          0.323073 0.253163 0.0
          0.327594 0.30435 0.0
          0.465309 0.32688 0.0
          0.345301 0.320734 0.0
          0.286321 0.259845 0.0
          0.285824 0.34064 0.0
          0.388009 0.351817 0.0
          0.219729 0.378532 0.0
          0.0800986 0.377023 0.0
          0.196175 0.412087 0.0
          0.0585047 0.402057 0.0
          0.019462 0.408368 0.0
          0.130333 0.433515 0.0
          0.110984 0.433656 0.0
          0.0758749 0.466726 0.0
          0.208691 0.488006 0.0
          0.17014 0.478704 0.0
          0.215077 0.488036 0.0
          0.217941 0.487623 0.0
          0.240874 0.493021 0.0
          0.125473 0.489462 0.0
          0.474193 0.384947 0.0
          0.45918 0.389101 0.0
          0.453816 0.402418 0.0
          0.357189 0.38129 0.0
          0.42561 0.426357 0.0
          0.354438 0.415832 0.0
          0.313387 0.408624 0.0
          0.398629 0.437061 0.0
          0.394688 0.432274 0.0
          0.291614 0.419305 0.0
          0.290327 0.413521 0.0
          0.456777 0.456119 0.0
          0.361931 0.441943 0.0
          0.492217 0.472721 0.0
          0.30944 0.449453 0.0
          0.265316 0.428661 0.0
          0.40914 0.481733 0.0
          0.48096 0.489825 0.0
          0.267289 0.47737 0.0
          0.288515 0.495271 0.0
          0.715189 0.345569 0.0
          0.713159 0.300971 0.0
          0.720066 0.277786 0.0
          0.738843 0.276538 0.0
          0.684404 0.259257 0.0
          0.623188 0.286703 0.0
          0.668413 0.347396 0.0
          0.586724 0.330875 0.0
          0.588151 0.333345 0.0
          0.583226 0.33554 0.0
          0.57394 0.280451 0.0
          0.600914 0.353307 0.0
          0.639786 0.361112 0.0
          0.578194 0.364774 0.0
          0.518839 0.278077 0.0
          0.500437 0.298322 0.0
          0.943149 0.313256 0.0
          0.968661 0.345143 0.0
          0.969956 0.314561 0.0
          0.982539 0.317278 0.0
          0.946072 0.36254 0.0
          0.969214 0.311557 0.0
          0.976935 0.372232 0.0
          0.974126 0.288953 0.0
          0.906209 0.355465 0.0
          0.951557 0.269804 0.0
          0.898893 0.317151 0.0
          0.902064 0.266665 0.0
          0.921284 0.253191 0.0
          0.880633 0.296903 0.0
          0.890576 0.268185 0.0
          0.892832 0.26849 0.0
          0.857673 0.32162 0.0
          0.826002 0.329401 0.0
          0.788788 0.341894 0.0
          0.787202 0.324885 0.0
          0.773933 0.287532 0.0
          0.764354 0.300891 0.0
          0.731371 0.462435 0.0
          0.668655 0.415068 0.0
          0.735525 0.461556 0.0
          0.694575 0.385966 0.0
          0.67523 0.39737 0.0
          0.700134 0.402705 0.0
          0.69735 0.472848 0.0
          0.697526 0.445401 0.0
          0.64132 0.408961 0.0
          0.664808 0.480432 0.0
          0.655854 0.484072 0.0
          0.682044 0.492866 0.0
          0.51444 0.425376 0.0
          0.514025 0.396982 0.0
          0.978108 0.46535 0.0
          0.982813 0.468474 0.0
          0.933197 0.474072 0.0
          0.922182 0.464268 0.0
          0.9806 0.443331 0.0
          0.988123 0.425243 0.0
          0.821396 0.425495 0.0
          0.795468 0.450465 0.0
          0.812241 0.399556 0.0
          0.767726 0.474581 0.0
          0.767101 0.401492 0.0
          0.757513 0.393131 0.0
          1.16866 0.0177667 0.0
          1.15484 0.0530539 0.0
          1.1361 0.0739676 0.0
          1.13468 0.104657 0.0
          1.10135 0.00304284 0.0
          1.09416 0.082553 0.0
          1.09374 0.05541 0.0
          1.07308 0.0817404 0.0
          1.06463 0.0585802 0.0
          1.06848 0.0120384 0.0
          1.04917 0.0497068 0.0
          1.00629 0.0167743 0.0
          1.36485 0.11892 0.0
          1.49548 0.0784727 0.0
          1.45919 0.0334887 0.0
          1.42752 0.0367708 0.0
          1.37305 0.0985267 0.0
          1.48633 0.0969547 0.0
          1.40609 0.0638617 0.0
          1.36193 0.108716 0.0
          1.36038 0.0263985 0.0
          1.36188 0.042783 0.0
          1.34817 0.00298467 0.0
          1.34575 0.00169459 0.0
          1.33357 0.0379155 0.0
          1.32054 0.0190996 0.0
          1.32027 0.0225636 0.0
          1.29617 0.108914 0.0
          1.28966 0.0229082 0.0
          1.26054 0.0874837 0.0
          1.26212 0.11022 0.0
          1.18474 0.209842 0.0
          1.17765 0.207239 0.0
          1.22277 0.186218 0.0
          1.17967 0.163543 0.0
          1.22327 0.149981 0.0
          1.2172 0.149738 0.0
          1.14676 0.165106 0.0
          1.2371 0.149276 0.0
          1.15986 0.141998 0.0
          1.11631 0.138769 0.0
          1.2001 0.136447 0.0
          1.06806 0.190288 0.0
          1.05965 0.142427 0.0
          1.0419 0.175846 0.0
          1.04851 0.142557 0.0
          1.03061 0.182656 0.0
          1.01901 0.129985 0.0
          1.37698 0.225471 0.0
          1.40961 0.20528 0.0
          1.46195 0.213054 0.0
          1.48284 0.183413 0.0
[...]
      <PointData Scalars="scalars">
        <DataArray type="Float64" Name="velocity" NumberOfComponents="3" Format="ascii">
          0.000402428 -0.00285679 0 
          0.0753925 -0.0396746 0 
          0.190702 -0.0494264 0 
          0.0788423 -0.0319311 0 
          0.0860556 -0.0237895 0 
          0.140809 -0.0552656 0 
          0.118841 -0.061116 0 
          0.0827844 -0.00692871 0 
          0.164795 -0.038281 0 
          0.00280347 -0.0661221 0 
          0.0551312 -0.0558277 0 
          0.199104 -0.0120343 0 
          0.173246 -0.0740922 0 
          0.073704 -0.0861786 0 
          0.0594132 -0.0904605 0 
          0.0120283 -0.0984567 0 
          0.0845883 -0.102488 0 
          0.030566 -0.117771 0 
          0.36187 -0.022851 0 
          0.348093 -0.00447738 0 
          0.318482 -0.00395709 0 
          0.342303 -0.0366736 0 
          0.342479 -0.0380863 0 
          0.314246 -0.0307497 0 
          0.303178 -0.0510608 0 
          0.307044 -0.0130802 0 
          0.292674 -0.037169 0 
          0.278157 -0.0201995 0 
          0.273715 -0.0530748 0 
          0.269609 -0.0578427 0 
          0.271294 -0.0583724 0 
          0.294816 -0.063422 0 
          0.262104 -0.00575752 0 
          0.305456 -0.0626814 0 
          0.350608 -0.0516335 0 
          0.297507 -0.0663187 0 
          0.255897 -0.0751198 0 
          0.23893 -0.0494932 0 
          0.266458 -0.0777198 0 
          0.231811 -0.033604 0 
          0.255178 -0.0810424 0 
          0.22184 -0.0809939 0 
          0.178264 -0.108575 0 
          0.133846 -0.119359 0 
          0.0234357 -0.137202 0 
          0.00316759 -0.145774 0 
          0.0858723 -0.1437 0 
          0.192705 -0.134695 0 
          0.0402509 -0.163911 0 
          0.197071 -0.144901 0 
          0.167124 -0.15566 0 
          0.048623 -0.174713 0 
          0.168674 -0.178603 0 
          0.177011 -0.189756 0 
          0.327268 -0.0722919 0 
          0.303447 -0.09541 0 
          0.324733 -0.087185 0 
          0.293529 -0.0900838 0 
          0.309948 -0.099375 0 
          0.28466 -0.0863021 0 
          0.32851 -0.0919698 0 
          0.271671 -0.117037 0 
          0.275958 -0.0938277 0 
          0.272399 -0.121869 0 
          0.250772 -0.135718 0 
          0.294453 -0.12583 0 
          0.204316 -0.14197 0 
          0.279646 -0.138738 0 
          0.432959 -0.013129 0 
          0.427666 -0.0159602 0 
          0.433492 -0.00142266 0 
          0.422282 -0.0221031 0 
          0.425777 -0.018613 0 
          0.432997 -0.00153964 0 
          0.430682 -0.00474574 0 
          0.409477 -0.0288899 0 
          0.416754 -0.0160851 0 
          0.407727 -0.0290586 0 
          0.405391 -0.0239324 0 
          0.401276 -0.0258819 0 
          0.396926 -0.0286344 0 
          0.406235 -0.000516881 0 
          0.397293 -0.0268645 0 
          0.390535 -0.0105378 0 
          0.385401 -0.0292462 0 
          0.39189 -0.00503995 0 
          0.379524 -0.0342181 0 
          0.381582 -0.0339187 0 
          0.377646 -0.0266004 0 
          0.417779 -0.0259992 0 
          0.365244 -0.000786722 0 
          0.36298 -0.0220331 0 
          0.445796 0.000956954 0 
          0.44768 0.000494991 0 
          0.453719 0.000366464 0 
          0.445979 0.000245439 0 
          0.444997 -1.19429e-05 0 
          0.457041 -0.000351423 0 
          0.453586 -0.00126897 0 
          0.456057 -0.000904955 0 
          0.450806 -0.00258546 0 
          0.454841 -0.00168427 0 
          0.454814 -0.0011864 0 
          0.437645 -0.0109884 0 
          0.448775 -0.00496956 0 
          0.445126 -0.00658234 0 
          0.447121 -0.00392991 0 
          0.442528 -0.000607923 0 
          0.388565 -0.0377591 0 
          0.404858 -0.0322295 0 
          0.371481 -0.0557188 0 
          0.365216 -0.0628902 0 
          0.368853 -0.0588045 0 
          0.380958 -0.0531786 0 
          0.369361 -0.0621824 0 
          0.435197 0.00185512 0 
          0.404684 -0.00361639 0 
          0.433314 -0.001201 0 
          0.424544 -0.00464382 0 
          0.437279 -0.00404163 0 
          0.435078 -0.00569622 0 
          0.39057 -0.0145681 0 
          0.408205 -0.0129899 0 
          0.38835 -0.0200929 0 
          0.388054 -0.0189764 0 
          0.396121 -0.0205787 0 
          0.40194 -0.0255935 0 
          0.42108 -0.0201805 0 
          0.401554 -0.0261569 0 
          0.139708 -0.222177 0 
          0.0491227 -0.237116 0 
          0.128498 -0.2434 0 
          0.0440653 -0.265195 0 
          0.058965 -0.268705 0 
          0.131563 -0.259219 0 
          0.1589 -0.248499 0 
          0.0953623 -0.283855 0 
          0.0701956 -0.296235 0 
          0.175339 -0.253048 0 
          0.0953354 -0.305971 0 
          0.138356 -0.294637 0 
          0.304053 -0.121186 0 
          0.294877 -0.128852 0 
          0.300237 -0.123062 0 
          0.290791 -0.134308 0 
          0.243602 -0.179421 0 
          0.239522 -0.167328 0 
          0.229579 -0.193408 0 
          0.27587 -0.143192 0 
          0.2333 -0.193657 0 
          0.216638 -0.184117 0 
          0.198307 -0.230817 0 
          0.239456 -0.186416 0 
          0.152992 -0.285314 0 
          0.0620771 -0.332784 0 
          0.132679 -0.316615 0 
          0.0450407 -0.356258 0 
          0.0153651 -0.366494 0 
          0.0908325 -0.358933 0 
          0.0787884 -0.365926 0 
          0.0533918 -0.399291 0 
          0.119353 -0.347101 0 
          0.104809 -0.366907 0 
          0.121865 -0.342631 0 
          0.123108 -0.340418 0 
          0.129523 -0.325012 0 
          0.0802186 -0.395621 0 
          0.246116 -0.152663 0 
          0.240634 -0.161068 0 
          0.231305 -0.166267 0 
          0.215955 -0.212313 0 
          0.210648 -0.185583 0 
          0.199232 -0.224506 0 
          0.188509 -0.246429 0 
          0.198598 -0.202947 0 
          0.200718 -0.204474 0 
          0.176021 -0.263486 0 
          0.177695 -0.262091 0 
          0.193417 -0.170642 0 
          0.187499 -0.22616 0 
          0.180738 -0.15052 0 
          0.169289 -0.261703 0 
          0.162219 -0.2838 0 
          0.169285 -0.201137 0 
          0.165052 -0.15676 0 
          0.144138 -0.29937 0 
          0.141374 -0.287767 0 
          0.305768 -0.0551523 0 
          0.338384 -0.0521457 0 
          0.354097 -0.047965 0 
          0.356905 -0.04324 0 
          0.359949 -0.0545494 0 
          0.333979 -0.0759776 0 
          0.3001 -0.069513 0 
          0.300428 -0.0953476 0 
          0.29907 -0.0952135 0 
          0.296796 -0.097337 0 
          0.32695 -0.0901636 0 
          0.287399 -0.0932851 0 
          0.286443 -0.080226 0 
          0.27597 -0.103301 0 
          0.313914 -0.108012 0 
          0.299464 -0.120556 0 
          0.340698 0.000256446 0 
          0.314258 0.00613368 0 
          0.339573 0.00584224 0 
          0.337288 0.00847892 0 
          0.298702 0.00143115 0 
          0.341923 0.00563352 0 
          0.289548 0.00844514 0 
          0.358671 0.0061677 0 
          0.304904 -0.0076698 0 
          0.371947 0.00151461 0 
          0.337181 -0.00922272 0 
          0.373483 -0.0080256 0 
          0.382293 -0.00421798 0 
          0.352124 -0.0129211 0 
          0.372198 -0.0103158 0 
          0.372064 -0.00987454 0 
          0.33255 -0.0184897 0 
          0.325092 -0.0260403 0 
          0.313118 -0.0354763 0 
          0.32672 -0.0351326 0 
          0.352881 -0.0360046 0 
          0.342954 -0.0391722 0 
          0.191287 -0.0521385 0 
          0.241633 -0.0729647 0 
          0.192275 -0.0509382 0 
          0.270214 -0.0635144 0 
          0.258729 -0.0702663 0 
          0.254931 -0.0622304 0 
          0.179366 -0.0623955 0 
          0.210864 -0.063152 0 
          0.246024 -0.0826011 0 
          0.170878 -0.0732242 0 
          0.166729 -0.0762861 0 
          0.155283 -0.0664846 0 
          0.222345 -0.137153 0 
          0.244054 -0.134646 0 
          0.187069 0.0101635 0 
          0.183169 0.0112551 0 
          0.175755 -2.59541e-05 0 
          0.18817 -0.00277478 0 
          0.213886 0.0104486 0 
          0.234709 0.0118784 0 
          0.233606 -0.0283367 0 
          0.204977 -0.0347919 0 
          0.260969 -0.0307484 0 
          0.175946 -0.0415611 0 
          0.258003 -0.0425991 0 
          0.265971 -0.0450509 0 
          0.437743 0.00322988 0 
          0.437548 0.00892226 0 
          0.437708 0.0111943 0 
          0.431983 0.0155867 0 
          0.448475 0.000379721 0 
          0.441827 0.00958632 0 
          0.446029 0.00646258 0 
          0.444211 0.00808903 0 
          0.448657 0.00542973 0 
          0.451971 0.00116875 0 
          0.451054 0.00399595 0 
          0.456186 0.000782878 0 
          0.372512 0.0421659 0 
          0.323727 0.0373995 0 
          0.344531 0.0149618 0 
          0.358411 0.0153606 0 
          0.373297 0.0358144 0 
          0.325895 0.0452912 0 
          0.365196 0.0253054 0 
          0.3755 0.0383272 0 
          0.385464 0.00941624 0 
          0.383964 0.0152715 0 
          0.390395 0.00103569 0 
          0.391246 0.000584363 0 
          0.394178 0.0125489 0 
          0.399412 0.0061136 0 
          0.39937 0.00721141 0 
          0.396406 0.0317344 0 
          0.408791 0.00666216 0 
          0.410045 0.0226873 0 
          0.405305 0.0285896 0 
          0.388542 0.0383974 0 
          0.390822 0.0367618 0 
          0.391678 0.0405929 0 
          0.407904 0.030009 0 
          0.404058 0.0333272 0 
          0.405388 0.0324832 0 
          0.412524 0.0257281 0 
          0.401298 0.0349925 0 
          0.418213 0.0239136 0 
          0.425425 0.0183749 0 
          0.412705 0.0277124 0 
          0.411157 0.0173643 0 
          0.43008 0.0123573 0 
          0.419099 0.0126353 0 
          0.430873 0.0111224 0 
          0.41689 0.011523 0 
          0.436535 0.00719973 0 
          0.337258 0.0795019 0 
          0.333394 0.0792081 0 
          0.310662 0.0921984 0 
          0.310352 0.0836648 0 
          0.301795 0.104246 0 
          0.328107 0.0713545 0 
          0.359211 0.0570792 0 
          0.36278 0.0579 0 
          0.362214 0.0532954 0 
          0.353504 0.0680365 0 
          0.349352 0.071078 0 
          0.373092 0.0490632 0 
          0.364628 0.0593104 0 
          0.349106 0.0554828 0 
          0.357485 0.0653283 0 
          0.370249 0.0556214 0 
          0.373 0.0536213 0 
          0.362111 0.0604544 0 
          0.387829 0.0425851 0 
          0.395034 0.038132 0 
          0.257586 0.0512142 0 
          0.219757 0.0451597 0 
          0.241014 0.071061 0 
          0.201062 0.0346463 0 
          0.198562 0.0388249 0 
          0.262003 0.0437644 0 
          0.282874 0.0221926 0 
          0.248338 0.0439561 0 
          0.289712 0.0591183 0 
          0.298953 0.0126152 0 
          0.299045 0.00328128 0 
          0.313877 0.0395048 0 
          0.310412 0.0513711 0 
          0.112346 0.0149356 0 
          0.100424 0.0489452 0 
          0.0495396 0.0670809 0 
          0.116653 0.05915 0 
          0.135054 0.0146096 0 
          0.125934 0.0185238 0 
          0.104274 0.0710652 0 
          0.00421729 0.0101019 0 
          0.0963791 0.0324473 0 
          0.12429 0.06706 0 
          0.0196581 0.0542752 0 
          0.0998089 0.0462055 0 
          0.0381778 0.0429271 0 
          0.150126 0.0675595 0 
          0.14774 0.0326436 0 
          0.0098929 0.0172812 0 
          0.0481944 0.0831719 0 
          0.21972 0.107122 0 
          0.243272 0.127538 0 
          0.224096 0.136818 0 
          0.253394 0.0903371 0 
          0.163427 0.123118 0 
          0.269869 0.0734293 0 
          0.178849 0.0863205 0 
          0.178049 0.0866087 0 
          0.290625 0.088273 0 
          0.282685 0.109342 0 
          0.300154 0.0830763 0 
          0.0230737 0.109221 0 
          0.0156665 0.118973 0 
          0.0192509 0.09968 0 
          0.0635286 0.0972863 0 
          0.0776596 0.13306 0 
          0.0556054 0.11109 0 
          0.114123 0.138779 0 
          0.143375 0.0956522 0 
          0.115728 0.155585 0 
          0.084688 0.128653 0 
          0.0865226 0.148084 0 
          0.154199 0.104508 0 
          0.0285966 0.0887405 0 
          0.292255 0.0605631 0 
          0.288534 0.0616768 0 
          0.283629 0.0646225 0 
          0.316275 0.0420035 0 
          0.342891 0.0395577 0 
          0.337141 0.0568363 0 
          0.321029 0.0397516 0 
          0.332325 0.0397365 0 
          0.343774 0.0521577 0 
          0.349621 0.0355481 0 
          0.349883 0.0532388 0 
          0.320052 0.0327976 0 
          0.334634 0.0292908 0 
          0.333859 0.0287123 0 
          0.348445 0.0272624 0 
          0.353317 0.0153262 0 
          0.358086 0.0137569 0 
          0.247341 0.137086 0 
          0.251213 0.144858 0 
          0.249486 0.146056 0 
          0.242167 0.148808 0 
          0.24657 0.140555 0 
          0.2954 0.104417 0 
          0.319679 0.0870986 0 
          0.321411 0.0739371 0 
          0.317648 0.0727137 0 
          0.346386 0.0657007 0 
          0.146439 0.0379033 0 
          0.18872 0.0448138 0 
          0.189081 0.0835169 0 
          0.227035 0.0584825 0 
          0.214903 0.0754812 0 
          0.157885 0.0300245 0 
          0.255176 0.0446083 0 
          0.25601 0.0305292 0 
          0.231389 0.0250597 0 
          0.269907 0.0707568 0 
          0.208741 0.0191512 0 
          0.246178 0.0187443 0 
          0.181097 0.0161735 0 
          0.227684 0.0158863 0 
          0.278678 0.0150869 0 
          0.279316 0.0594229 0 
          0.149918 0.181486 0 
          0.153583 0.168249 0 
          0.184176 0.154799 0 
          0.214513 0.124319 0 
          0.224835 0.103875 0 
          0.208395 0.165719 0 
          0.189031 0.0979983 0 
          0.19278 0.0981528 0 
          0.250733 0.10425 0 
          0.260287 0.105444 0 
          0.24634 0.134978 0 
          0.241491 0.0825661 0 
          0.214285 0.172471 0 
          0.190471 0.175192 0 
          0.165553 0.181177 0 
          0.196945 0.184956 0 
          0.223285 0.16699 0 
          0.14878 0.187087 0 
          0.21052 0.175856 0 
          0.143606 0.186897 0 
          0.133662 0.208862 0 
          0.182718 0.170242 0 
          0.208509 0.160935 0 
          0.191146 0.166898 0 
          0.207814 0.160603 0 
          0.171205 0.167353 0 
          0.155976 0.167542 0 
          0.231383 0.161085 0 
          0.253359 0.140039 0 
          0.2309 0.141943 0 
          0.16489 0.15391 0 
          0.25268 0.144223 0 
          0.106168 0.214565 0 
          0.0941399 0.211743 0 
          0.0764155 0.211426 0 
          0.106316 0.186159 0 
          0.0658351 0.210109 0 
          0.0293335 0.19527 0 
          0.0563488 0.212169 0 
          0.0696617 0.187405 0 
          0.0928718 0.210498 0 
          0.0749184 0.200835 0 
          0.0281851 0.196437 0 
          0.0876677 0.223232 0 
          0.0353689 0.216801 0 
          0.0958184 0.223576 0 
          0.0210518 0.221607 0 
          0.00616421 0.178058 0 
          0.0908921 0.172795 0 
          0.0401346 0.174338 0 
          0.0489831 0.175584 0 
          0.0405048 0.172707 0 
          0.0269383 0.174495 0 
          0.0651573 0.166575 0 
          0.115059 0.248701 0 
          0.116181 0.247239 0 
          0.116416 0.245084 0 
          0.163926 0.207434 0 
          0.150578 0.223088 0 
          0.153722 0.221048 0 
          0.112976 0.234997 0 
          0.179192 0.191239 0 
          0.152138 0.21691 0 
          0.141854 0.220354 0 
          0.198266 0.186735 0 
          0.208757 0.174689 0 
          0.223171 0.16469 0 
          0.201538 0.184584 0 
          0.147851 0.214168 0 
          0.0127273 0.244722 0 
          0.0420973 0.254284 0 
          0.017451 0.243021 0 
          0.041987 0.259128 0 
          0.0561658 0.270919 0 
          0.0144245 0.243585 0 
          0.0796713 0.256672 0 
          0.0489139 0.26658 0 
          0.0451957 0.275113 0 
          0.0331861 0.267653 0 
          0.0168594 0.262569 0 
          0.0106668 0.26005 0 
          0.0417941 0.240239 0 
          0.0586821 0.236242 0 
          0.115835 -0.348456 0 
          0.0951013 -0.385268 0 
          0.0187225 -0.459945 0 
          0.0785573 -0.412724 0 
          0.0690353 -0.429605 0 
          0.0660489 -0.435039 0 
          0.0544006 -0.454344 0 
          0.0787781 -0.346143 0 
          0.0747005 -0.331108 0 
          0.0755302 -0.388804 0 
          0.0637895 -0.438383 0 
          0.0606595 -0.368051 0 
          0.0205177 -0.504363 0 
          0.113279 -0.153043 0 
          0.11687 -0.164584 0 
          0.148886 -0.223805 0 
          0.0823765 -0.141332 0 
          0.0767711 -0.142155 0 
          0.107505 -0.181483 0 
          0.110344 -0.230517 0 
          0.107786 -0.238943 0 
          0.0841108 -0.192921 0 
          0.0716107 -0.173737 0 
          0.0838673 -0.200819 0 
          0.0809911 -0.225525 0 
          0.0414417 -0.150846 0 
          0.06785 -0.231546 0 
          0.069835 -0.237272 0 
          0.0831458 -0.303489 0 
          0.0432864 -0.195941 0 
          0.0442179 -0.19219 0 
          0.039363 -0.1847 0 
          0.0385391 -0.201319 0 
          0.0302744 -0.182286 0 
          0.0654296 -0.294711 0 
          0.0160913 -0.159971 0 
          0.0405435 -0.238476 0 
          0.0456561 -0.252708 0 
          0.0291308 -0.340259 0 
          0.0441151 -0.401786 0 
          0.0506956 -0.448463 0 
          0.0445871 -0.459407 0 
          0.0447601 -0.457163 0 
          0.0361702 -0.491765 0 
          0.0289861 -0.50355 0 
          0.0279064 -0.400935 0 
          0.0255406 -0.387277 0 
          0.022178 -0.417398 0 
          0.00597413 -0.392753 0 
          0.0165032 -0.411874 0 
          0.0268532 -0.468835 0 
          0.0255588 -0.494771 0 
          0.00616699 -0.542777 0 
          0.0164175 -0.452616 0 
          -0.0231591 -0.363237 0 
          0.0119912 -0.535072 0 
          0.0102638 -0.540989 0 
          0.00198127 -0.165065 0 
          0.0264219 -0.228227 0 
          -0.0390304 -0.186148 0 
          -0.0653879 -0.135383 0 
          -0.0636963 -0.17493 0 
          -0.0881457 -0.161104 0 
          -0.00255768 -0.255942 0 
          -0.0128125 -0.296418 0 
          -0.0973151 -0.182389 0 
          -0.0881765 -0.209913 0 
          -0.0210683 -0.1184 0 
          -0.136062 -0.0954019 0 
          -0.144821 -0.172878 0 
          0.0804213 -0.106611 0 
          0.0584786 -0.0565136 0 
          0.0366695 -0.0649214 0 
          0.0410993 -0.0612567 0 
          0.123943 -0.0692681 0 
          0.0510319 -0.100589 0 
          0.0180904 -0.0722097 0 
          0.00343261 -0.038307 0 
          0.0623933 -0.0444964 0 
          0.126473 -0.0448839 0 
          0.073405 -0.0635225 0 
          0.0827366 -0.120299 0 
          0.119561 -0.127085 0 
          0.150605 -0.129942 0 
          0.0914868 -0.129552 0 
          0.0123357 -0.111544 0 
          0.120547 -0.135506 0 
          0.080724 -0.13319 0 
          -0.0311433 -0.014734 0 
          0.0322378 -0.00951183 0 
          -0.0145615 -0.0196815 0 
          0.00523373 0.00339926 0 
          0.0278998 0.00821273 0 
          0.0814301 -0.0127252 0 
          0.0636412 0.0123313 0 
          0.0865981 -0.0295187 0 
          0.0175939 -0.0353261 0 
          0.0930302 -0.0306411 0 
          -0.0517355 -0.0270265 0 
          -0.135152 -0.0803602 0 
          -0.165888 -0.0498478 0 
          -0.0477446 -0.0662551 0 
          -0.190191 -0.0812301 0 
          -0.0987461 -0.0551373 0 
          -0.174226 -0.0582193 0 
          -0.267198 -0.0420964 0 
          -0.262631 -0.0370042 0 
          -0.26714 -0.0351566 0 
          -0.26494 -0.0349084 0 
          -0.207374 -0.0774391 0 
          -0.188942 -0.0345909 0 
          -0.248044 -0.0573925 0 
          -0.207501 -0.0259191 0 
          -0.260201 -0.0619352 0 