<?xml version="1.0"?>
<VTKFile type="UnstructuredGrid" version="0.1" byte_order="LittleEndian">
  <UnstructuredGrid>
    <Piece NumberOfPoints="10" NumberOfCells="10">
      <Points>
        <DataArray name="Position" type="Float64" NumberOfComponents="3" Format="ascii">
          1.5401 0.111752 0.0
          1.49068 0.304639 0.0
          0.00554783 0.954696 0.0
          0.23824 0.977726 0.0
          1.69986 0.743139 0.0
          1.17049 0.820848 0.0
          1.33499 0.778396 0.0
          1.55355 0.86345 0.0
          1.98672 0.834032 0.0
          1.99909 0.993202 0.0
        </DataArray>
      </Points>
      <Cells>
        <DataArray type="Int32" Name="connectivity" Format="ascii">
          0
          1
          2
          3
          4
          5
          6
          7
          8
          9
        </DataArray>
        <DataArray type="Int32" Name="offsets" Format="ascii">
          1
          2
          3
          4
          5
          6
          7
          8
          9
          10
        </DataArray>
        <DataArray type="UInt8" Name="types" Format="ascii">
          1
          1
          1
          1
          1
          1
          1
          1
          1
          1
        </DataArray>
      </Cells>
      <PointData Scalars="scalars">
        <DataArray type="Float64" Name="id" NumberOfComponents="1" Format="ascii">
          4
          3
          7
          2
          1
          9
          0
          8
          6
          5
        </DataArray>
      </PointData>
    </Piece>
  </UnstructuredGrid>
</VTKFile>
