<?xml version="1.0"?>
<VTKFile type="UnstructuredGrid" version="0.1" byte_order="LittleEndian">
  <UnstructuredGrid>
    <Piece NumberOfPoints="1000" NumberOfCells="1000">
      <Points>
        <DataArray name="Position" type="Float64" NumberOfComponents="3" Format="ascii">
          0.000435955 0.00299319 0.0
          0.0840773 0.0426024 0.0
          0.223637 0.0600702 0.0
          0.0879884 0.0343339 0.0
          0.0962589 0.0256743 0.0
          0.161601 0.0626986 0.0
          0.135236 0.0678512 0.0
          0.0924316 0.00745339 0.0
          0.190655 0.0446401 0.0
          0.00305096 0.0695523 0.0
          0.0611045 0.0594368 0.0
          0.233353 0.0147454 0.0
          0.202621 0.0879561 0.0
          0.0826782 0.0927841 0.0
          0.066315 0.0967258 0.0
          0.013198 0.103875 0.0
          0.0956668 0.111222 0.0
          0.0339174 0.124874 0.0
          0.497955 0.0489199 0.0
          0.465608 0.00867205 0.0
          0.409733 0.0066862 0.0
          0.460069 0.0710477 0.0
          0.460963 0.0740115 0.0
          0.40464 0.0518421 0.0
          0.389122 0.0837221 0.0
          0.390267 0.0212365 0.0
          0.368609 0.0580676 0.0
          0.34385 0.0298899 0.0
          0.340309 0.0786565 0.0
          0.33458 0.0848727 0.0
          0.33732 0.0861199 0.0
          0.377562 0.1018 0.0
          0.319166 0.00810737 0.0
          0.396588 0.104933 0.0
          0.487026 0.10877 0.0
          0.38321 0.107875 0.0
          0.316153 0.106855 0.0
          0.287974 0.0665418 0.0
          0.333314 0.114334 0.0
          0.277008 0.0442095 0.0
          0.31613 0.115434 0.0
          0.267077 0.105673 0.0
          0.211522 0.130898 0.0
          0.155701 0.135553 0.0
          0.0260531 0.145487 0.0
          0.00349999 0.154227 0.0
          0.0983791 0.156869 0.0
          0.23399 0.168635 0.0
          0.0454468 0.175247 0.0
          0.241845 0.184301 0.0
          0.201956 0.187412 0.0
          0.0553402 0.187719 0.0
          0.207641 0.218245 0.0
          0.222009 0.237817 0.0
          0.446402 0.137429 0.0
          0.409292 0.167494 0.0
          0.454988 0.171999 0.0
          0.38509 0.148598 0.0
          0.429154 0.184532 0.0
          0.366751 0.136374 0.0
          0.476652 0.195142 0.0
          0.356393 0.183983 0.0
          0.353869 0.144706 0.0
          0.360806 0.194203 0.0
          0.326012 0.202035 0.0
          0.424523 0.237925 0.0
          0.251674 0.183378 0.0
          0.397364 0.246528 0.0
          0.731117 0.0685555 0.0
          0.708486 0.0745874 0.0
          0.709883 0.00652886 0.0
          0.708633 0.104573 0.0
          0.710095 0.0881187 0.0
          0.707588 0.00698969 0.0
          0.698728 0.0207669 0.0
          0.65602 0.108299 0.0
          0.654108 0.0587858 0.0
          0.646616 0.104712 0.0
          0.62265 0.0778541 0.0
          0.610487 0.0805617 0.0
          0.59918 0.0857167 0.0
          0.608352 0.00155705 0.0
          0.597752 0.079861 0.0
          0.565123 0.0275905 0.0
          0.562418 0.0770185 0.0
          0.567525 0.0132449 0.0
          0.550031 0.0868243 0.0
          0.55586 0.0877178 0.0
          0.538487 0.0646605 0.0
          0.707787 0.123426 0.0
          0.501869 0.00168322 0.0
          0.500218 0.0474678 0.0
          0.959401 0.102465 0.0
          0.954338 0.0943241 0.0
          0.955637 0.060447 0.0
          0.950704 0.101892 0.0
          0.947498 0.105995 0.0
          0.93217 0.0260926 0.0
          0.922166 0.0594489 0.0
          0.918004 0.0359448 0.0
          0.905743 0.0744474 0.0
          0.876692 0.0278148 0.0
          0.868118 0.0173686 0.0
          0.831375 0.113625 0.0
          0.822646 0.0462536 0.0
          0.794801 0.0497243 0.0
          0.79696 0.0298975 0.0
          0.758746 0.00360498 0.0
          0.731162 0.216368 0.0
          0.730496 0.177614 0.0
          0.655652 0.22536 0.0
          0.624943 0.224288 0.0
          0.64234 0.224953 0.0
          0.618501 0.17832 0.0
          0.588946 0.188425 0.0
          0.964009 0.140118 0.0
          0.922936 0.213104 0.0
          0.936589 0.145938 0.0
          0.911486 0.168601 0.0
          0.909148 0.13198 0.0
          0.89575 0.137562 0.0
          0.863115 0.235856 0.0
          0.863131 0.201604 0.0
          0.833718 0.236769 0.0
          0.840031 0.238039 0.0
          0.825545 0.221092 0.0
          0.787753 0.202024 0.0
          0.789367 0.154455 0.0
          0.784526 0.202117 0.0
          0.174111 0.263754 0.0
          0.0576468 0.257838 0.0
          0.161792 0.287079 0.0
          0.0524681 0.289671 0.0
          0.0711838 0.296362 0.0
          0.1696 0.310833 0.0
          0.210763 0.315061 0.0
          0.120972 0.326075 0.0
          0.0877459 0.33287 0.0
          0.24622 0.345854 0.0
          0.124454 0.355951 0.0
          0.193615 0.374183 0.0
          0.473614 0.267898 0.0
          0.436932 0.254256 0.0
          0.48551 0.28695 0.0
          0.454252 0.284637 0.0
          0.350622 0.295177 0.0
          0.323073 0.253163 0.0
          0.327594 0.30435 0.0
          0.465309 0.32688 0.0
          0.345301 0.320734 0.0
          0.286321 0.259845 0.0
          0.285824 0.34064 0.0
          0.388009 0.351817 0.0
          0.219729 0.378532 0.0
          0.0800987 0.377022 0.0
          0.196175 0.412087 0.0
          0.0585049 0.402056 0.0
          0.0194621 0.408367 0.0
          0.130334 0.433515 0.0
          0.110984 0.433655 0.0
          0.0758752 0.466726 0.0
          0.208692 0.488005 0.0
          0.17014 0.478704 0.0
          0.215077 0.488036 0.0
          0.217941 0.487623 0.0
          0.240874 0.493021 0.0
          0.125473 0.489461 0.0
          0.474193 0.384947 0.0
          0.45918 0.389101 0.0
          0.453816 0.402418 0.0
          0.357189 0.38129 0.0
          0.425611 0.426357 0.0
          0.354438 0.415832 0.0
          0.313388 0.408624 0.0
          0.398629 0.437061 0.0
          0.394688 0.432274 0.0
          0.291614 0.419305 0.0
          0.290327 0.413521 0.0
          0.456777 0.456119 0.0
          0.361931 0.441943 0.0
          0.492217 0.472721 0.0
          0.309441 0.449454 0.0
          0.265316 0.428661 0.0
          0.40914 0.481733 0.0
          0.48096 0.489825 0.0
          0.26729 0.47737 0.0
          0.288516 0.495271 0.0
          0.715189 0.345569 0.0
          0.713159 0.300971 0.0
          0.720067 0.277786 0.0
          0.738843 0.276538 0.0
          0.684404 0.259257 0.0
          0.623188 0.286703 0.0
          0.668413 0.347396 0.0
          0.586724 0.330875 0.0
          0.588152 0.333345 0.0
          0.583226 0.33554 0.0
          0.57394 0.280451 0.0
          0.600914 0.353307 0.0
          0.639786 0.361112 0.0
          0.578194 0.364774 0.0
          0.518839 0.278077 0.0
          0.500438 0.298322 0.0
          0.943149 0.313256 0.0
          0.968661 0.345143 0.0
          0.969956 0.314561 0.0
          0.982539 0.317278 0.0
          0.946073 0.36254 0.0
          0.969214 0.311557 0.0
          0.976935 0.372232 0.0
          0.974126 0.288953 0.0
          0.906209 0.355465 0.0
          0.951557 0.269804 0.0
          0.898893 0.317151 0.0
          0.902064 0.266665 0.0
          0.921285 0.253191 0.0
          0.880634 0.296903 0.0
          0.890576 0.268185 0.0
          0.892832 0.26849 0.0
          0.857673 0.32162 0.0
          0.826002 0.329401 0.0
          0.788788 0.341894 0.0
          0.787202 0.324885 0.0
          0.773933 0.287532 0.0
          0.764354 0.300891 0.0
          0.731371 0.462435 0.0
          0.668655 0.415068 0.0
          0.735525 0.461556 0.0
          0.694575 0.385966 0.0
          0.67523 0.39737 0.0
          0.700134 0.402705 0.0
          0.69735 0.472848 0.0
          0.697526 0.445401 0.0
          0.64132 0.408961 0.0
          0.664808 0.480432 0.0
          0.655854 0.484072 0.0
          0.682044 0.492866 0.0
          0.51444 0.425376 0.0
          0.514025 0.396982 0.0
          0.978108 0.46535 0.0
          0.982813 0.468474 0.0
          0.933197 0.474072 0.0
          0.922182 0.464268 0.0
          0.9806 0.443331 0.0
          0.988123 0.425244 0.0
          0.821396 0.425495 0.0
          0.795468 0.450465 0.0
          0.812241 0.399556 0.0
          0.767726 0.474581 0.0
          0.767101 0.401492 0.0
          0.757513 0.393131 0.0
          1.16866 0.0177667 0.0
          1.15484 0.0530539 0.0
          1.1361 0.0739677 0.0
          1.13468 0.104657 0.0
          1.10135 0.00304284 0.0
          1.09416 0.082553 0.0
          1.09374 0.05541 0.0
          1.07308 0.0817405 0.0
          1.06463 0.0585802 0.0
          1.06848 0.0120385 0.0
          1.04917 0.0497068 0.0
          1.00629 0.0167743 0.0
          1.36485 0.11892 0.0
          1.49548 0.0784728 0.0
          1.45919 0.0334888 0.0
          1.42752 0.0367708 0.0
          1.37305 0.0985268 0.0
          1.48633 0.0969547 0.0
          1.40608 0.0638618 0.0
          1.36193 0.108716 0.0
          1.36038 0.0263985 0.0
          1.36188 0.042783 0.0
          1.34817 0.00298468 0.0
          1.34575 0.00169459 0.0
          1.33357 0.0379155 0.0
          1.32054 0.0190996 0.0
          1.32027 0.0225636 0.0
          1.29617 0.108914 0.0
          1.28966 0.0229083 0.0
          1.26054 0.0874838 0.0
          1.26212 0.11022 0.0
          1.18474 0.209842 0.0
          1.17765 0.207239 0.0
          1.22277 0.186219 0.0
          1.17967 0.163543 0.0
          1.22327 0.149981 0.0
          1.2172 0.149738 0.0
          1.14676 0.165106 0.0
          1.2371 0.149276 0.0
          1.15986 0.141998 0.0
          1.11631 0.13877 0.0
          1.2001 0.136447 0.0
          1.06806 0.190288 0.0
          1.05965 0.142427 0.0
          1.0419 0.175846 0.0
          1.04851 0.142557 0.0
          1.03061 0.182657 0.0
          1.01901 0.129985 0.0
          1.37698 0.225471 0.0
          1.40961 0.205281 0.0
          1.46195 0.213054 0.0
          1.48284 0.183413 0.0
[...]
      <PointData Scalars="scalars">
        <DataArray type="Float64" Name="velocity" NumberOfComponents="3" Format="ascii">
          0.000402429 -0.00285681 0 
          0.0753928 -0.0396747 0 
          0.190703 -0.0494265 0 
          0.0788426 -0.0319312 0 
          0.0860559 -0.0237896 0 
          0.140809 -0.0552657 0 
          0.118841 -0.0611161 0 
          0.0827847 -0.00692874 0 
          0.164796 -0.0382811 0 
          0.00280348 -0.0661223 0 
          0.0551315 -0.0558278 0 
          0.199105 -0.0120344 0 
          0.173247 -0.0740923 0 
          0.0737043 -0.0861788 0 
          0.0594134 -0.0904607 0 
          0.0120283 -0.0984569 0 
          0.0845886 -0.102488 0 
          0.0305661 -0.117772 0 
          0.361871 -0.022851 0 
          0.348094 -0.00447739 0 
          0.318482 -0.00395709 0 
          0.342304 -0.0366735 0 
          0.342479 -0.0380862 0 
          0.314247 -0.0307497 0 
          0.303179 -0.0510607 0 
          0.307045 -0.0130802 0 
          0.292674 -0.037169 0 
          0.278157 -0.0201995 0 
          0.273716 -0.0530748 0 
          0.269609 -0.0578426 0 
          0.271294 -0.0583723 0 
          0.294817 -0.0634219 0 
          0.262105 -0.00575753 0 
          0.305457 -0.0626813 0 
          0.350608 -0.0516333 0 
          0.297508 -0.0663186 0 
          0.255898 -0.0751197 0 
          0.238931 -0.0494932 0 
          0.266459 -0.0777196 0 
          0.231811 -0.0336041 0 
          0.255178 -0.0810423 0 
          0.22184 -0.0809939 0 
          0.178264 -0.108575 0 
          0.133847 -0.119359 0 
          0.0234358 -0.137202 0 
          0.00316761 -0.145774 0 
          0.0858728 -0.1437 0 
          0.192706 -0.134695 0 
          0.0402511 -0.163912 0 
          0.197071 -0.144901 0 
          0.167124 -0.15566 0 
          0.0486233 -0.174713 0 
          0.168675 -0.178603 0 
          0.177012 -0.189757 0 
          0.327269 -0.0722917 0 
          0.303448 -0.0954098 0 
          0.324733 -0.0871848 0 
          0.29353 -0.0900836 0 
          0.309949 -0.0993748 0 
          0.284661 -0.0863019 0 
          0.328511 -0.0919697 0 
          0.271672 -0.117037 0 
          0.275958 -0.0938275 0 
          0.2724 -0.121869 0 
          0.250772 -0.135718 0 
          0.294454 -0.12583 0 
          0.204317 -0.14197 0 
          0.279646 -0.138738 0 
          0.432959 -0.013129 0 
          0.427667 -0.0159602 0 
          0.433492 -0.00142266 0 
          0.422283 -0.022103 0 
          0.425777 -0.018613 0 
          0.432997 -0.00153964 0 
          0.430683 -0.00474575 0 
          0.409478 -0.0288899 0 
          0.416754 -0.0160851 0 
          0.407728 -0.0290586 0 
          0.405392 -0.0239324 0 
          0.401277 -0.0258819 0 
          0.396927 -0.0286343 0 
          0.406235 -0.000516882 0 
          0.397294 -0.0268645 0 
          0.390536 -0.0105378 0 
          0.385402 -0.0292461 0 
          0.39189 -0.00503996 0 
          0.379524 -0.0342181 0 
          0.381582 -0.0339186 0 
          0.377647 -0.0266004 0 
          0.417779 -0.0259992 0 
          0.365244 -0.000786723 0 
          0.36298 -0.0220331 0 
          0.445796 0.000957033 0 
          0.44768 0.00049506 0 
          0.453719 0.000366507 0 
          0.445979 0.000245512 0 
          0.444997 -1.18687e-05 0 
          0.457041 -0.000351409 0 
          0.453586 -0.00126894 0 
          0.456058 -0.000904938 0 
          0.450807 -0.00258543 0 
          0.454842 -0.00168426 0 
          0.454814 -0.0011864 0 
          0.437646 -0.0109884 0 
          0.448776 -0.00496955 0 
          0.445126 -0.00658233 0 
          0.447121 -0.00392991 0 
          0.442529 -0.000607924 0 
          0.388565 -0.0377592 0 
          0.404858 -0.0322295 0 
          0.371482 -0.0557188 0 
          0.365217 -0.0628902 0 
          0.368854 -0.0588045 0 
          0.380958 -0.0531785 0 
          0.369361 -0.0621823 0 
          0.435197 0.00185524 0 
          0.404684 -0.00361626 0 
          0.433315 -0.0012009 0 
          0.424545 -0.00464371 0 
          0.437279 -0.00404156 0 
          0.435079 -0.00569614 0 
          0.39057 -0.0145681 0 
          0.408206 -0.0129898 0 
          0.388351 -0.0200928 0 
          0.388055 -0.0189764 0 
          0.396121 -0.0205786 0 
          0.40194 -0.0255935 0 
          0.42108 -0.0201804 0 
          0.401555 -0.0261569 0 
          0.139709 -0.222178 0 
          0.0491231 -0.237117 0 
          0.128499 -0.2434 0 
          0.0440658 -0.265196 0 
          0.0589656 -0.268706 0 
          0.131564 -0.259219 0 
          0.158901 -0.248499 0 
          0.0953634 -0.283856 0 
          0.0701965 -0.296236 0 
          0.17534 -0.253048 0 
          0.0953367 -0.305972 0 
          0.138358 -0.294638 0 
          0.304054 -0.121186 0 
          0.294878 -0.128852 0 
          0.300237 -0.123062 0 
          0.290791 -0.134307 0 
          0.243603 -0.179421 0 
          0.239522 -0.167328 0 
          0.22958 -0.193408 0 
          0.275871 -0.143191 0 
          0.233301 -0.193656 0 
          0.216639 -0.184117 0 
          0.198308 -0.230817 0 
          0.239457 -0.186416 0 
          0.152994 -0.285314 0 
          0.0620783 -0.332785 0 
          0.132681 -0.316616 0 
          0.0450417 -0.35626 0 
          0.0153655 -0.366497 0 
          0.0908345 -0.358934 0 
          0.0787903 -0.365928 0 
          0.0533934 -0.399294 0 
          0.119355 -0.347101 0 
          0.104811 -0.366908 0 
          0.121867 -0.342631 0 
          0.12311 -0.340418 0 
          0.129525 -0.325011 0 
          0.0802208 -0.395623 0 
          0.246116 -0.152662 0 
          0.240634 -0.161068 0 
          0.231305 -0.166266 0 
          0.215956 -0.212313 0 
          0.210649 -0.185582 0 
          0.199233 -0.224505 0 
          0.18851 -0.246428 0 
          0.198599 -0.202946 0 
          0.200719 -0.204473 0 
          0.176022 -0.263485 0 
          0.177697 -0.26209 0 
          0.193417 -0.170641 0 
          0.1875 -0.226159 0 
          0.180738 -0.150519 0 
          0.16929 -0.261702 0 
          0.162221 -0.2838 0 
          0.169285 -0.201136 0 
          0.165052 -0.156759 0 
          0.14414 -0.299369 0 
          0.141375 -0.287765 0 
          0.305769 -0.0551523 0 
          0.338384 -0.0521457 0 
          0.354097 -0.047965 0 
          0.356905 -0.04324 0 
          0.35995 -0.0545494 0 
          0.333979 -0.0759775 0 
          0.3001 -0.0695129 0 
          0.300428 -0.0953474 0 
          0.299071 -0.0952133 0 
          0.296796 -0.0973368 0 
          0.32695 -0.0901634 0 
          0.287399 -0.0932849 0 
          0.286443 -0.0802259 0 
          0.275971 -0.103301 0 
          0.313915 -0.108012 0 
          0.299464 -0.120556 0 
          0.340698 0.000256644 0 
          0.314258 0.00613394 0 
          0.339574 0.00584249 0 
          0.337288 0.0084792 0 
          0.298702 0.00143135 0 
          0.341924 0.00563377 0 
          0.289548 0.00844544 0 
          0.358671 0.00616795 0 
          0.304905 -0.00766969 0 
          0.371947 0.00151481 0 
          0.337181 -0.00922261 0 
          0.373483 -0.00802548 0 
          0.382293 -0.00421783 0 
          0.352125 -0.012921 0 
          0.372198 -0.0103157 0 
          0.372065 -0.00987443 0 
          0.332551 -0.0184896 0 
          0.325093 -0.0260403 0 
          0.313118 -0.0354764 0 
          0.32672 -0.0351327 0 
          0.352881 -0.0360046 0 
          0.342955 -0.0391723 0 
          0.191287 -0.0521387 0 
          0.241633 -0.0729647 0 
          0.192275 -0.0509384 0 
          0.270214 -0.0635144 0 
          0.25873 -0.0702663 0 
          0.254931 -0.0622305 0 
          0.179366 -0.0623957 0 
          0.210864 -0.0631521 0 
          0.246024 -0.0826011 0 
          0.170878 -0.0732243 0 
          0.166729 -0.0762862 0 
          0.155283 -0.0664848 0 
          0.222345 -0.137153 0 
          0.244054 -0.134646 0 
          0.187069 0.0101637 0 
          0.18317 0.0112554 0 
          0.175755 -2.58602e-05 0 
          0.18817 -0.00277472 0 
          0.213886 0.0104489 0 
          0.234709 0.0118787 0 
          0.233606 -0.0283368 0 
          0.204978 -0.0347921 0 
          0.260969 -0.0307485 0 
          0.175947 -0.0415614 0 
          0.258003 -0.0425993 0 
          0.265972 -0.0450511 0 
          0.437743 0.00322992 0 
          0.437548 0.00892238 0 
          0.437708 0.0111944 0 
          0.431983 0.015587 0 
          0.448475 0.000379727 0 
          0.441828 0.00958648 0 
          0.446029 0.00646268 0 
          0.444212 0.00808917 0 
          0.448657 0.00542982 0 
          0.451972 0.00116877 0 
          0.451054 0.00399603 0 
          0.456186 0.000782896 0 
          0.372512 0.0421662 0 
          0.323727 0.0373996 0 
          0.34453 0.0149618 0 
          0.358411 0.0153607 0 
          0.373296 0.0358146 0 
          0.325895 0.0452914 0 
          0.365195 0.0253056 0 
          0.375499 0.0383275 0 
          0.385463 0.00941631 0 
          0.383963 0.0152717 0 
          0.390395 0.00103569 0 
          0.391246 0.000584368 0 
          0.394178 0.012549 0 
          0.399411 0.00611365 0 
          0.39937 0.00721147 0 
          0.396406 0.0317347 0 
          0.40879 0.00666223 0 
          0.410045 0.0226875 0 
          0.405305 0.0285898 0 
          0.388542 0.0383979 0 
          0.390822 0.0367623 0 
          0.391678 0.0405934 0 
          0.407904 0.0300094 0 
          0.404058 0.0333276 0 
          0.405388 0.0324836 0 
          0.412524 0.0257285 0 
          0.401298 0.0349929 0 
          0.418213 0.0239139 0 
          0.425425 0.0183752 0 
          0.412705 0.0277128 0 
          0.411157 0.0173646 0 
          0.43008 0.0123575 0 
          0.4191 0.0126355 0 
          0.430873 0.0111226 0 
          0.41689 0.0115233 0 
          0.436535 0.00719989 0 
          0.337257 0.0795025 0 
          0.333393 0.0792086 0 
          0.310661 0.0921988 0 
          0.310351 0.0836652 0 
          0.301794 0.104246 0 
          0.328106 0.0713549 0 
          0.359211 0.0570796 0 
          0.362779 0.0579005 0 
          0.362214 0.0532958 0 
          0.353504 0.068037 0 
          0.349352 0.0710786 0 
          0.373092 0.0490636 0 
          0.364628 0.0593109 0 
          0.349106 0.0554831 0 
          0.357484 0.0653289 0 
          0.370249 0.0556219 0 
          0.372999 0.0536218 0 
          0.362111 0.060455 0 
          0.387828 0.0425855 0 
          0.395034 0.0381324 0 
          0.257585 0.0512142 0 
          0.219757 0.0451597 0 
          0.241013 0.0710609 0 
          0.201061 0.0346462 0 
          0.198561 0.0388249 0 
          0.262002 0.0437644 0 
          0.282873 0.0221927 0 
          0.248337 0.0439561 0 
          0.289711 0.0591185 0 
          0.298952 0.0126152 0 
          0.299044 0.00328129 0 
          0.313876 0.0395049 0 
          0.310412 0.0513713 0 
          0.112346 0.0149355 0 
          0.100424 0.048945 0 
          0.0495393 0.0670804 0 
          0.116653 0.0591497 0 
          0.135054 0.0146096 0 
          0.125934 0.0185237 0 
          0.104273 0.0710648 0 
          0.00421727 0.0101018 0 
          0.0963786 0.0324471 0 
          0.124289 0.0670597 0 
          0.019658 0.0542749 0 
          0.0998084 0.0462052 0 
          0.0381776 0.0429268 0 
          0.150125 0.0675592 0 
          0.147739 0.0326434 0 
          0.00989284 0.017281 0 
          0.0481941 0.0831714 0 
          0.219719 0.107122 0 
          0.243272 0.127538 0 
          0.224096 0.136819 0 
          0.253393 0.0903372 0 
          0.163426 0.123117 0 
          0.269868 0.0734294 0 
          0.178848 0.0863203 0 
          0.178048 0.0866085 0 
          0.290624 0.0882733 0 
          0.282684 0.109343 0 
          0.300154 0.0830766 0 
          0.0230735 0.109221 0 
          0.0156664 0.118973 0 
          0.0192508 0.0996793 0 
          0.0635282 0.0972857 0 
          0.0776592 0.133059 0 
          0.0556051 0.111089 0 
          0.114122 0.138779 0 
          0.143375 0.0956518 0 
          0.115728 0.155584 0 
          0.0846875 0.128652 0 
          0.0865221 0.148083 0 
          0.154199 0.104508 0 
          0.0285964 0.0887398 0 
          0.292255 0.060564 0 
          0.288534 0.0616778 0 
          0.283629 0.0646235 0 
          0.316275 0.0420042 0 
          0.342891 0.0395583 0 
          0.337141 0.056837 0 
          0.32103 0.0397523 0 
          0.332325 0.0397372 0 
          0.343774 0.0521584 0 
          0.349621 0.0355486 0 
          0.349883 0.0532394 0 
          0.320052 0.0327983 0 
          0.334634 0.0292913 0 
          0.333859 0.0287129 0 
          0.348445 0.027263 0 
          0.353318 0.0153266 0 
          0.358087 0.0137572 0 
          0.24734 0.137087 0 
          0.251212 0.144858 0 
          0.249485 0.146057 0 
          0.242167 0.148809 0 
          0.246569 0.140556 0 
          0.2954 0.104418 0 
          0.319679 0.0870993 0 
          0.321411 0.0739379 0 
          0.317648 0.0727145 0 
          0.346386 0.0657014 0 
          0.14644 0.0379041 0 
          0.18872 0.0448148 0 
          0.18908 0.0835181 0 
          0.227035 0.0584836 0 
          0.214903 0.0754824 0 
          0.157885 0.0300252 0 
          0.255176 0.0446092 0 
          0.25601 0.0305299 0 
          0.231389 0.0250604 0 
          0.269907 0.0707578 0 
          0.208741 0.0191517 0 
          0.246178 0.0187448 0 
          0.181097 0.0161739 0 
          0.227684 0.0158867 0 
          0.278678 0.0150873 0 
          0.279316 0.0594239 0 
          0.149918 0.181487 0 
          0.153583 0.16825 0 
          0.184175 0.1548 0 
          0.214513 0.12432 0 
          0.224835 0.103876 0 
          0.208395 0.16572 0 
          0.18903 0.0979996 0 
          0.19278 0.098154 0 
          0.250733 0.104251 0 
          0.260286 0.105445 0 
          0.246339 0.134979 0 
          0.24149 0.0825673 0 
          0.214284 0.172471 0 
          0.19047 0.175192 0 
          0.165552 0.181176 0 
          0.196944 0.184956 0 
          0.223284 0.166991 0 
          0.148779 0.187086 0 
          0.21052 0.175856 0 
          0.143605 0.186897 0 
          0.133661 0.208861 0 
          0.182717 0.170242 0 
          0.208508 0.160935 0 
          0.191145 0.166898 0 
          0.207813 0.160603 0 
          0.171204 0.167353 0 
          0.155975 0.167541 0 
          0.231383 0.161086 0 
          0.253358 0.14004 0 
          0.230899 0.141944 0 
          0.164889 0.15391 0 
          0.252679 0.144224 0 
          0.106168 0.214564 0 
          0.0941392 0.211742 0 
          0.0764149 0.211425 0 
          0.106315 0.186158 0 
          0.0658346 0.210107 0 
          0.0293333 0.195268 0 
          0.0563483 0.212168 0 
          0.0696612 0.187404 0 
          0.0928712 0.210497 0 
          0.0749179 0.200834 0 
          0.0281849 0.196436 0 
          0.087667 0.223231 0 
          0.0353686 0.216799 0 
          0.0958176 0.223575 0 
          0.0210516 0.221605 0 
          0.00616416 0.178056 0 
          0.0908915 0.172795 0 
          0.0401343 0.174337 0 
          0.0489828 0.175583 0 
          0.0405045 0.172706 0 
          0.0269382 0.174494 0 
          0.0651569 0.166574 0 
          0.115058 0.248701 0 
          0.11618 0.247239 0 
          0.116415 0.245085 0 
          0.163925 0.207435 0 
          0.150577 0.223088 0 
          0.153721 0.221048 0 
          0.112975 0.234996 0 
          0.179191 0.19124 0 
          0.152137 0.21691 0 
          0.141853 0.220354 0 
          0.198265 0.186735 0 
          0.208756 0.17469 0 
          0.223171 0.164691 0 
          0.201537 0.184585 0 
          0.14785 0.214168 0 
          0.0127271 0.24472 0 
          0.0420967 0.254283 0 
          0.0174507 0.243019 0 
          0.0419863 0.259127 0 
          0.0561649 0.270918 0 
          0.0144242 0.243583 0 
          0.0796704 0.256671 0 
          0.0489131 0.266579 0 
          0.0451948 0.275112 0 
          0.0331854 0.267652 0 
          0.016859 0.262567 0 
          0.0106665 0.260048 0 
          0.0417936 0.240237 0 
          0.0586815 0.23624 0 
          0.115838 -0.348456 0 
          0.0951034 -0.385269 0 
          0.0187231 -0.459949 0 
          0.0785589 -0.412726 0 
          0.0690369 -0.429608 0 
          0.0660502 -0.435042 0 
          0.0544017 -0.454348 0 
          0.0787789 -0.346142 0 
          0.074701 -0.331107 0 
          0.0755311 -0.388805 0 
          0.0637906 -0.438386 0 
          0.0606596 -0.368051 0 
          0.0205178 -0.504368 0 
          0.113279 -0.153041 0 
          0.11687 -0.164583 0 
          0.148887 -0.223803 0 
          0.0823766 -0.14133 0 
          0.0767712 -0.142153 0 
          0.107506 -0.181481 0 
          0.110344 -0.230515 0 
          0.107787 -0.238941 0 
          0.0841111 -0.192919 0 
          0.0716109 -0.173735 0 
          0.0838676 -0.200817 0 
          0.0809915 -0.225522 0 
          0.0414417 -0.150844 0 
          0.0678503 -0.231544 0 
          0.0698353 -0.237269 0 
          0.0831465 -0.303487 0 
          0.0432863 -0.195938 0 
          0.0442179 -0.192187 0 
          0.0393629 -0.184697 0 
          0.038539 -0.201316 0 
          0.0302743 -0.182283 0 
          0.0654298 -0.294709 0 
          0.0160911 -0.159969 0 
          0.0405432 -0.238473 0 
          0.0456559 -0.252705 0 
          0.0291298 -0.340258 0 
          0.0441147 -0.401788 0 
          0.0506957 -0.448466 0 
          0.0445869 -0.459411 0 
          0.0447599 -0.457166 0 
          0.0361701 -0.491769 0 
          0.0289861 -0.503555 0 
          0.0279054 -0.400936 0 
          0.0255396 -0.387278 0 
          0.0221769 -0.4174 0 
          0.0059727 -0.392754 0 
          0.016502 -0.411876 0 
          0.0268523 -0.468838 0 
          0.025558 -0.494775 0 
          0.00616685 -0.542783 0 
          0.0164162 -0.452618 0 
          -0.023161 -0.363238 0 
          0.0119905 -0.535077 0 
          0.0102632 -0.540993 0 
          0.00198085 -0.165062 0 
          0.0264214 -0.228224 0 
          -0.0390317 -0.186145 0 
          -0.0653887 -0.135381 0 
          -0.0636978 -0.174927 0 
          -0.0881473 -0.161102 0 
          -0.00255902 -0.255939 0 
          -0.0128143 -0.296416 0 
          -0.0973171 -0.182387 0 
          -0.0881787 -0.209911 0 
          -0.0210684 -0.118398 0 
          -0.136062 -0.0954009 0 
          -0.144823 -0.172877 0 
          0.0804214 -0.106611 0 
          0.0584788 -0.0565141 0 
          0.0366697 -0.0649218 0 
          0.0410995 -0.0612571 0 
          0.123943 -0.0692684 0 
          0.0510319 -0.100588 0 
          0.0180906 -0.07221 0 
          0.00343284 -0.0383074 0 
          0.0623935 -0.0444969 0 
          0.126473 -0.0448843 0 
          0.0734051 -0.0635229 0 
          0.0827367 -0.120299 0 
          0.119562 -0.127085 0 
          0.150606 -0.129941 0 
          0.0914869 -0.129552 0 
          0.0123357 -0.111543 0 
          0.120547 -0.135505 0 
          0.0807241 -0.133189 0 
          -0.0311432 -0.0147343 0 
          0.032238 -0.00951208 0 
          -0.0145613 -0.0196819 0 
          0.00523387 0.00339927 0 
          0.0278999 0.00821289 0 
          0.0814304 -0.0127254 0 
          0.0636414 0.0123315 0 
          0.0865984 -0.0295191 0 
          0.0175941 -0.0353265 0 
          0.0930305 -0.0306415 0 
          -0.0517353 -0.0270269 0 
          -0.135152 -0.0803598 0 
          -0.165887 -0.0498482 0 
          -0.0477443 -0.0662552 0 
          -0.190191 -0.0812294 0 
          -0.0987458 -0.0551376 0 
          -0.174226 -0.0582195 0 
          -0.267197 -0.0420967 0 
          -0.262631 -0.0370046 0 
          -0.26714 -0.035157 0 
          -0.26494 -0.0349088 0 
          -0.207374 -0.0774385 0 
          -0.188942 -0.0345914 0 
          -0.248044 -0.0573925 0 
          -0.207501 -0.0259195 0 