<?xml version="1.0"?>
<VTKFile type="UnstructuredGrid" version="0.1" byte_order="LittleEndian">
  <UnstructuredGrid>
    <Piece NumberOfPoints="1000" NumberOfCells="1000">
      <Points>
        <DataArray name="Position" type="Float64" NumberOfComponents="3" Format="ascii">
          0.000587121 0.00223892 0.0
          0.112087 0.0321559 0.0
          0.117262 0.0259302 0.0
          0.128174 0.0194188 0.0
          0.213386 0.0482852 0.0
          0.179099 0.0518425 0.0
          0.123147 0.00563139 0.0
          0.00410421 0.0520759 0.0
          0.0816533 0.0447095 0.0
          0.110085 0.0700708 0.0
          0.0884583 0.0728549 0.0
          0.0177137 0.0778398 0.0
          0.127079 0.0842312 0.0
          0.0453665 0.0937339 0.0
          0.205032 0.104338 0.0
          0.0348454 0.109172 0.0
          0.00469228 0.115616 0.0
          0.130298 0.118965 0.0
          0.494809 0.0710554 0.0
          0.497273 0.0179988 0.0
          0.471177 0.0487974 0.0
          0.441954 0.024822 0.0
          0.436946 0.0653122 0.0
          0.429914 0.0703072 0.0
          0.43318 0.0714296 0.0
          0.480645 0.0859965 0.0
          0.412202 0.00665523 0.0
          0.487081 0.0913729 0.0
          0.407092 0.08785 0.0
          0.373497 0.0539715 0.0
          0.427581 0.0947348 0.0
          0.360216 0.0356637 0.0
          0.40682 0.0949236 0.0
          0.346952 0.0850133 0.0
          0.305693 0.0116621 0.0
          0.2931 0.0473668 0.0
          0.466576 0.114754 0.0
          0.276682 0.102856 0.0
          0.265999 0.0687969 0.0
          0.450983 0.121098 0.0
          0.251017 0.0347198 0.0
          0.0605255 0.131821 0.0
          0.0735416 0.14142 0.0
          0.076102 0.194761 0.0
          0.225794 0.205296 0.0
          0.209512 0.222738 0.0
          0.0690743 0.218925 0.0
          0.0933673 0.224686 0.0
          0.218535 0.242173 0.0
          0.487533 0.126111 0.0
          0.451996 0.154402 0.0
          0.456568 0.163391 0.0
          0.415039 0.167439 0.0
          0.325688 0.14688 0.0
          0.494767 0.211504 0.0
          0.40832 0.210213 0.0
          0.313464 0.146982 0.0
          0.364253 0.212315 0.0
          0.304143 0.133936 0.0
          0.28684 0.188515 0.0
          0.269546 0.171755 0.0
          0.263264 0.146936 0.0
          0.436887 0.248906 0.0
          0.269508 0.249677 0.0
          0.743613 0.0745578 0.0
          0.731144 0.0790436 0.0
          0.743232 0.00143747 0.0
          0.729882 0.0736005 0.0
          0.695876 0.0251145 0.0
          0.691486 0.0701237 0.0
          0.698673 0.0120619 0.0
          0.677433 0.0787204 0.0
          0.683803 0.0796983 0.0
          0.665574 0.0583491 0.0
          0.62574 0.00149521 0.0
          0.623351 0.042196 0.0
          0.620773 0.0434498 0.0
          0.606261 0.096338 0.0
          0.584654 0.00759238 0.0
          0.577265 0.0621736 0.0
          0.578191 0.0647968 0.0
          0.558778 0.119774 0.0
          0.520175 0.00571348 0.0
          0.513751 0.0442636 0.0
          0.502862 0.0894067 0.0
          0.972156 0.111589 0.0
          0.96726 0.0453283 0.0
          0.93863 0.0484063 0.0
          0.941422 0.0291162 0.0
          0.902303 0.00347631 0.0
          0.871942 0.0656885 0.0
          0.851331 0.00621506 0.0
          0.848934 0.0839837 0.0
          0.847997 0.0710458 0.0
          0.846326 0.0996435 0.0
          0.84892 0.00664959 0.0
          0.839482 0.0197126 0.0
          0.843983 0.117601 0.0
          0.790672 0.101691 0.0
          0.791277 0.0551257 0.0
          0.780927 0.0980438 0.0
          0.756832 0.0723295 0.0
          0.74555 0.209303 0.0
          0.744538 0.165796 0.0
          0.711851 0.173609 0.0
          0.58857 0.172643 0.0
          0.566236 0.150641 0.0
          0.577284 0.237748 0.0
          0.536068 0.159944 0.0
          0.538469 0.222045 0.0
          0.526262 0.206458 0.0
          0.514523 0.143797 0.0
          0.987938 0.233167 0.0
          0.993754 0.199335 0.0
          0.958188 0.232658 0.0
          0.96432 0.234213 0.0
          0.95268 0.21687 0.0
          0.917342 0.196491 0.0
          0.925268 0.150224 0.0
          0.914036 0.196437 0.0
          0.85717 0.207708 0.0
          0.861924 0.17035 0.0
          0.801859 0.246272 0.0
          0.777585 0.212192 0.0
          0.763723 0.211008 0.0
          0.156745 0.250345 0.0
          0.114208 0.253617 0.0
          0.16035 0.274056 0.0
          0.245368 0.295698 0.0
          0.103655 0.287549 0.0
          0.0756955 0.305928 0.0
          0.025349 0.309417 0.0
          0.246224 0.327124 0.0
          0.165071 0.336294 0.0
          0.141158 0.334494 0.0
          0.0965579 0.357905 0.0
          0.409522 0.254194 0.0
          0.428267 0.270419 0.0
          0.357763 0.280063 0.0
          0.472345 0.303263 0.0
          0.31064 0.279291 0.0
          0.43436 0.325248 0.0
          0.382174 0.342778 0.0
          0.276707 0.302795 0.0
          0.356481 0.348629 0.0
          0.355697 0.343373 0.0
          0.426404 0.355731 0.0
          0.325699 0.352367 0.0
          0.210844 0.378395 0.0
          0.156813 0.381065 0.0
          0.217075 0.424262 0.0
          0.0351728 0.413421 0.0
          0.186378 0.443009 0.0
          0.156696 0.43942 0.0
          0.153442 0.447183 0.0
          0.125216 0.454497 0.0
          0.157956 0.462211 0.0
          0.228074 0.482298 0.0
          0.0450911 0.479948 0.0
          0.469898 0.382297 0.0
          0.46667 0.377225 0.0
          0.430251 0.380649 0.0
          0.372366 0.378325 0.0
          0.471228 0.426012 0.0
          0.32223 0.39534 0.0
          0.342851 0.415583 0.0
          0.433242 0.442147 0.0
          0.29106 0.403837 0.0
          0.262469 0.39424 0.0
          0.265783 0.394454 0.0
          0.263704 0.413352 0.0
          0.410778 0.484005 0.0
          0.398986 0.484584 0.0
          0.25515 0.392964 0.0
          0.476547 0.496669 0.0
          0.314641 0.49738 0.0
          0.271867 0.493676 0.0
          0.733514 0.268133 0.0
          0.686908 0.306901 0.0
          0.687865 0.309381 0.0
          0.682302 0.310995 0.0
          0.68306 0.258252 0.0
          0.696579 0.329614 0.0
          0.734323 0.340719 0.0
          0.670625 0.338297 0.0
          0.624814 0.251226 0.0
          0.601998 0.268079 0.0
          0.587637 0.256186 0.0
          0.559849 0.290468 0.0
          0.558809 0.345208 0.0
          0.553985 0.250917 0.0
          0.542355 0.347049 0.0
          0.534155 0.358681 0.0
          0.597367 0.361608 0.0
          0.992668 0.294406 0.0
          0.963621 0.317531 0.0
          0.929942 0.323296 0.0
          0.889362 0.3332 0.0
          0.892199 0.316428 0.0
          0.887612 0.279093 0.0
          0.874939 0.291536 0.0
          0.854304 0.266291 0.0
          0.834911 0.266343 0.0
          0.814433 0.331736 0.0
          0.823003 0.288318 0.0
          0.782776 0.369512 0.0
          0.766739 0.329919 0.0
          0.748324 0.395736 0.0
          0.72294 0.38722 0.0
          0.722403 0.459748 0.0
          0.712349 0.462479 0.0
          0.734421 0.473725 0.0
          0.59097 0.388671 0.0
          0.58289 0.465015 0.0
          0.5561 0.431157 0.0
          0.540186 0.446058 0.0
          0.52526 0.409738 0.0
          0.573833 0.49215 0.0
          0.557677 0.490335 0.0
          0.506778 0.490793 0.0
          0.711555 0.497149 0.0
          0.52341 0.495213 0.0
          0.500108 0.376717 0.0
          0.987663 0.472905 0.0
          0.980786 0.462547 0.0
          0.89601 0.417704 0.0
          0.861404 0.44058 0.0
          0.895717 0.391475 0.0
          0.824976 0.462459 0.0
          0.850293 0.390218 0.0
          0.843382 0.381307 0.0
          0.798411 0.447118 0.0
          0.794015 0.447667 0.0
          0.783377 0.386328 0.0
          0.766931 0.428074 0.0
          0.760167 0.379025 0.0
          0.756905 0.455204 0.0
          0.790696 0.499134 0.0
          1.24366 0.00317921 0.0
          1.23428 0.0859664 0.0
          1.23525 0.0577293 0.0
          1.21404 0.0846958 0.0
          1.20708 0.0606045 0.0
          1.21202 0.0124754 0.0
          1.19248 0.0512455 0.0
          1.15151 0.0171297 0.0
          1.10146 0.103462 0.0
          1.09706 0.0951481 0.0
          1.10035 0.0610121 0.0
          1.09289 0.102694 0.0
          1.08939 0.106752 0.0
          1.07817 0.0262076 0.0
          1.06712 0.0595724 0.0
          1.06382 0.0359905 0.0
          1.04994 0.0743322 0.0
          1.02257 0.0275974 0.0
          1.01409 0.0171993 0.0
          1.49181 0.110986 0.0
          1.48132 0.121964 0.0
          1.48298 0.0296997 0.0
          1.48401 0.0481273 0.0
          1.4723 0.00334731 0.0
          1.47014 0.00189907 0.0
          1.45884 0.0422706 0.0
          1.44744 0.0212194 0.0
          1.44716 0.0250628 0.0
          1.42195 0.119681 0.0
          1.41946 0.0252031 0.0
          1.39063 0.0951901 0.0
          1.39066 0.11988 0.0
          1.3075 0.0188803 0.0
          1.29358 0.0561264 0.0
          1.27486 0.0778376 0.0
          1.27155 0.110002 0.0
          1.1981 0.19629 0.0
          1.19598 0.146905 0.0
          1.17468 0.180455 0.0
          1.18515 0.146668 0.0
          1.16272 0.186941 0.0
          1.15768 0.132897 0.0
          1.10254 0.141546 0.0
          1.07471 0.146572 0.0
          1.05174 0.213228 0.0
          1.04694 0.168413 0.0
          1.04883 0.131818 0.0
          1.03485 0.136999 0.0
          1.49164 0.176837 0.0
          1.47269 0.188321 0.0
          1.4917 0.165062 0.0
          1.45461 0.23274 0.0
          1.45813 0.240851 0.0
          1.46227 0.164029 0.0
          1.45073 0.204932 0.0
          1.43573 0.235965 0.0
          1.43821 0.199244 0.0
          1.43442 0.194239 0.0
          1.39801 0.246154 0.0
          1.41459 0.164082 0.0
          1.39521 0.1569 0.0
          1.36419 0.160887 0.0
          1.34659 0.199424 0.0
          1.3512 0.161022 0.0
          1.34554 0.160496 0.0
[...]
      <PointData Scalars="scalars">
        <DataArray type="Float64" Name="velocity" NumberOfComponents="3" Format="ascii">
          0.000543413 -0.00214379 0 
          0.0999413 -0.0296126 0 
          0.104412 -0.0238125 0 
          0.113745 -0.0177112 0 
          0.183516 -0.0404895 0 
          0.155816 -0.0451557 0 
          0.109504 -0.00515932 0 
          0.00378634 -0.0497079 0 
          0.0734801 -0.0418167 0 
          0.0978421 -0.0644302 0 
          0.0791707 -0.0677893 0 
          0.0162241 -0.0740739 0 
          0.112034 -0.0765026 0 
          0.0410693 -0.088583 0 
          0.175046 -0.0878706 0 
          0.0315706 -0.103357 0 
          0.00429035 -0.109947 0 
          0.113888 -0.107508 0 
          0.360689 -0.0339274 0 
          0.365108 -0.00865487 0 
          0.351294 -0.0249826 0 
          0.337455 -0.0137477 0 
          0.33265 -0.0362708 0 
          0.328501 -0.0396534 0 
          0.330159 -0.0399679 0 
          0.352529 -0.0425293 0 
          0.321409 -0.00396188 0 
          0.354873 -0.0443375 0 
          0.314419 -0.051991 0 
          0.297128 -0.0345378 0 
          0.32494 -0.0534258 0 
          0.289627 -0.0235147 0 
          0.313576 -0.0561258 0 
          0.278606 -0.0570051 0 
          0.253785 -0.00853423 0 
          0.244173 -0.0352314 0 
          0.342076 -0.0584786 0 
          0.22971 -0.078032 0 
          0.223692 -0.0533704 0 
          0.333573 -0.0641245 0 
          0.213335 -0.0276992 0 
          0.0540787 -0.123649 0 
          0.0652396 -0.13184 0 
          0.0662752 -0.180067 0 
          0.183685 -0.165107 0 
          0.169963 -0.182329 0 
          0.0597311 -0.20227 0 
          0.0796878 -0.204852 0 
          0.174361 -0.194729 0 
          0.349905 -0.060547 0 
          0.328367 -0.0806352 0 
          0.328688 -0.083991 0 
          0.307583 -0.0951227 0 
          0.259123 -0.101315 0 
          0.332261 -0.0951227 0 
          0.295009 -0.118769 0 
          0.251198 -0.103711 0 
          0.271607 -0.132212 0 
          0.246358 -0.0964138 0 
          0.22857 -0.137813 0 
          0.218771 -0.130086 0 
          0.216731 -0.113184 0 
          0.297373 -0.128096 0 
          0.208264 -0.184217 0 
          0.439633 -0.0149455 0 
          0.436462 -0.016715 0 
          0.445586 -0.000296857 0 
          0.437099 -0.0156835 0 
          0.434502 -0.00627749 0 
          0.429041 -0.017543 0 
          0.435677 -0.00299546 0 
          0.424223 -0.0207355 0 
          0.425682 -0.0204751 0 
          0.423859 -0.0161946 0 
          0.415265 -0.000487606 0 
          0.412878 -0.0136909 0 
          0.411951 -0.0142162 0 
          0.400524 -0.0325193 0 
          0.401165 -0.00282798 0 
          0.39524 -0.0233108 0 
          0.395295 -0.0242037 0 
          0.379736 -0.046715 0 
          0.375544 -0.00258234 0 
          0.371358 -0.0201608 0 
          0.362219 -0.0415118 0 
          0.455327 -0.00279805 0 
          0.468094 -0.00133268 0 
          0.466617 -0.00237924 0 
          0.468592 -0.00138632 0 
          0.467155 -0.00026654 0 
          0.459313 -0.00637868 0 
          0.462225 -0.000718384 0 
          0.453632 -0.00955004 0 
          0.45591 -0.00817615 0 
          0.449924 -0.0114494 0 
          0.461939 -0.00078109 0 
          0.460405 -0.00245011 0 
          0.445032 -0.013611 0 
          0.442167 -0.0161196 0 
          0.450589 -0.00888223 0 
          0.441499 -0.0163428 0 
          0.442393 -0.0136582 0 
          0.397507 -0.0381876 0 
          0.415721 -0.0315935 0 
          0.407056 -0.037942 0 
          0.37654 -0.0596613 0 
          0.375452 -0.0566761 0 
          0.34914 -0.0810847 0 
          0.362342 -0.0656875 0 
          0.343833 -0.0868342 0 
          0.345207 -0.084769 0 
          0.357885 -0.0634301 0 
          0.402606 -0.00288935 0 
          0.421344 -0.00193447 0 
          0.402393 -0.00700872 0 
          0.401608 -0.00617158 0 
          0.41129 -0.00742508 0 
          0.420529 -0.0114189 0 
          0.440994 -0.00832284 0 
          0.420383 -0.0118483 0 
          0.410839 -0.0204251 0 
          0.428557 -0.0167962 0 
          0.384508 -0.032717 0 
          0.400314 -0.0331694 0 
          0.399116 -0.0352853 0 
          0.128158 -0.216223 0 
          0.0951075 -0.226885 0 
          0.128831 -0.234355 0 
          0.184861 -0.223329 0 
          0.0849728 -0.257049 0 
          0.0622162 -0.276795 0 
          0.0213661 -0.285093 0 
          0.17939 -0.242769 0 
          0.125507 -0.280098 0 
          0.109157 -0.285921 0 
          0.0752471 -0.315087 0 
          0.283832 -0.13961 0 
          0.286732 -0.140137 0 
          0.251837 -0.170451 0 
          0.289566 -0.135184 0 
          0.227212 -0.187823 0 
          0.267367 -0.157911 0 
          0.241166 -0.187353 0 
          0.202606 -0.214875 0 
          0.228691 -0.201709 0 
          0.230321 -0.199955 0 
          0.25054 -0.170898 0 
          0.214152 -0.218186 0 
          0.147845 -0.290393 0 
          0.114299 -0.314697 0 
          0.140861 -0.312941 0 
          0.0272855 -0.369334 0 
          0.120643 -0.339822 0 
          0.1053 -0.35241 0 
          0.102142 -0.358548 0 
          0.0849046 -0.375121 0 
          0.101877 -0.365135 0 
          0.128492 -0.331815 0 
          0.0322296 -0.416675 0 
          0.246874 -0.156301 0 
          0.249279 -0.156874 0 
          0.238788 -0.175743 0 
          0.222545 -0.204684 0 
          0.217478 -0.162056 0 
          0.197079 -0.237662 0 
          0.195536 -0.232484 0 
          0.200785 -0.184919 0 
          0.181394 -0.258877 0 
          0.17188 -0.27139 0 
          0.173367 -0.269563 0 
          0.166524 -0.279392 0 
          0.167099 -0.20166 0 
          0.165565 -0.209287 0 
          0.168747 -0.275037 0 
          0.157877 -0.161003 0 
          0.145125 -0.269311 0 
          0.137838 -0.301222 0 
          0.36398 -0.048441 0 
          0.332767 -0.0643442 0 
          0.331171 -0.064369 0 
          0.329329 -0.0660603 0 
          0.362469 -0.0586158 0 
          0.317459 -0.064045 0 
          0.312041 -0.0549134 0 
          0.307998 -0.0722571 0 
          0.354742 -0.0717993 0 
          0.341059 -0.0816693 0 
          0.343532 -0.0830051 0 
          0.319421 -0.0996318 0 
          0.286631 -0.110785 0 
          0.33696 -0.0912852 0 
          0.282448 -0.117423 0 
          0.273412 -0.122688 0 
          0.281147 -0.0987927 0 
          0.360826 -0.00240673 0 
          0.341872 -0.00724972 0 
          0.336319 -0.0132156 0 
          0.326573 -0.0209765 0 
          0.340887 -0.0200311 0 
          0.369361 -0.0196369 0 
          0.359649 -0.0224141 0 
          0.376255 -0.0248985 0 
          0.374839 -0.0283862 0 
          0.324471 -0.0361317 0 
          0.358827 -0.0320615 0 
          0.289464 -0.0446188 0 
          0.323001 -0.046447 0 
          0.263076 -0.0536195 0 
          0.270482 -0.060211 0 
          0.193096 -0.0602715 0 
          0.189993 -0.0630841 0 
          0.175857 -0.0564044 0 
          0.259337 -0.103913 0 
          0.187719 -0.109395 0 
          0.2199 -0.120811 0 
          0.20549 -0.128347 0 
          0.23549 -0.13322 0 
          0.15839 -0.11206 0 
          0.16096 -0.119384 0 
          0.162206 -0.143894 0 
          0.146804 -0.0615405 0 
          0.157031 -0.13532 0 
          0.255875 -0.140573 0 
          0.174456 -0.0024472 0 
          0.188021 -0.00373942 0 
          0.242192 -0.020307 0 
          0.215225 -0.0273322 0 
          0.270869 -0.0204173 0 
          0.188404 -0.0349153 0 
          0.271291 -0.0299044 0 
          0.280162 -0.0313052 0 
          0.207377 -0.0413662 0 
          0.206734 -0.0423888 0 
          0.273398 -0.0449134 0 
          0.229284 -0.0491505 0 
          0.279616 -0.0502397 0 
          0.197965 -0.0511799 0 
          0.141001 -0.041363 0 
          0.452091 0.00054556 0 
          0.445352 0.0136732 0 
          0.44977 0.00931976 0 
          0.448583 0.0121219 0 
          0.453578 0.00841702 0 
          0.456909 0.00181275 0 
          0.456738 0.00655687 0 
          0.464159 0.0016796 0 
          0.455489 0.00614411 0 
          0.457761 0.0053756 0 
          0.464097 0.00362849 0 
          0.456153 0.00549305 0 
          0.455286 0.00544682 0 
          0.468976 0.00116949 0 
          0.4659 0.00217658 0 
          0.468793 0.00124466 0 
          0.463959 0.00184987 0 
          0.470222 0.000195574 0 
          0.470804 2.70282e-05 0 
          0.370025 0.0460723 0 
          0.372297 0.0489593 0 
          0.382237 0.0122716 0 
          0.380728 0.0198494 0 
          0.38732 0.00134997 0 
          0.388207 0.000761337 0 
          0.391334 0.0162036 0 
          0.396809 0.00790167 0 
          0.396773 0.00931471 0 
          0.394146 0.0399654 0 
          0.406876 0.00858069 0 
          0.408768 0.0288119 0 
          0.403875 0.0360195 0 
          0.43934 0.00428163 0 
          0.439437 0.01185 0 
          0.439975 0.0150215 0 
          0.434013 0.0206807 0 
          0.413899 0.0242121 0 
          0.43421 0.0185149 0 
          0.423341 0.0194559 0 
          0.435499 0.0173 0 
          0.421511 0.0184683 0 
          0.442831 0.0130891 0 
          0.444002 0.00839576 0 
          0.443469 0.00594049 0 
          0.413844 0.00527039 0 
          0.435584 0.00376078 0 
          0.449295 0.00314318 0 
          0.447774 0.00204081 0 
          0.355856 0.0716153 0 
          0.359328 0.0715936 0 
          0.358908 0.067254 0 
          0.349489 0.081248 0 
          0.345193 0.0845365 0 
          0.369892 0.061198 0 
          0.361072 0.07201 0 
          0.35348 0.0772866 0 
          0.366889 0.0674971 0 
          0.369761 0.0652038 0 
          0.358349 0.0703025 0 
          0.385353 0.0525194 0 
          0.39312 0.0471891 0 
          0.400189 0.0432096 0 
          0.390338 0.0488486 0 
          0.403304 0.0411912 0 
          0.404797 0.0401917 0 
          0.412735 0.034722 0 
          0.3693 0.0537275 0 
          0.387554 0.0456017 0 
          0.390053 0.0438797 0 
          0.408036 0.0371674 0 
          0.41917 0.0304088 0 
          0.413364 0.0324581 0 
          0.427498 0.0244656 0 
          0.255836 0.0741367 0 
          0.259939 0.0632578 0 
          0.280044 0.0316676 0 
          0.246409 0.0644822 0 
          0.295773 0.0177931 0 
          0.295811 0.00463998 0 
          0.310805 0.0543249 0 
          0.307717 0.0703048 0 
          0.32042 0.0510634 0 
          0.32274 0.0613618 0 
          0.340756 0.0203078 0 
          0.354729 0.0205515 0 
          0.361712 0.0333253 0 
          0.112078 0.024648 0 
          0.100893 0.0812848 0 
          0.117278 0.0973814 0 
          0.134373 0.0238149 0 
          0.125473 0.0303539 0 
          0.00425215 0.0171887 0 
          0.096531 0.0539706 0 
          0.0199829 0.0925298 0 
          0.100213 0.0767551 0 
          0.0385826 0.0728422 0 
          0.147048 0.052753 0 
          0.00997601 0.0294048 0 
          0.199075 0.0536169 0 
          0.19672 0.0601785 0 
          0.218099 0.0683721 0 
          0.221669 0.155708 0 
          0.253635 0.127305 0 
          0.268944 0.103149 0 
          0.289606 0.117894 0 
          0.298545 0.110364 0 
          0.308313 0.109034 0 
          0.240369 0.103733 0 
          0.308449 0.116679 0 
          0.325417 0.0925489 0 
          0.287803 0.0822031 0 
          0.345981 0.0716956 0 
          0.330098 0.0977612 0 
          0.0242402 0.186543 0 
          0.0166498 0.203779 0 
          0.0200776 0.170269 0 
          0.0655633 0.163989 0 
          0.058072 0.187853 0 
          0.145514 0.153521 0 
          0.156802 0.165498 0 
          0.0295425 0.151253 0 
          0.167432 0.191152 0 
          0.0494587 0.141045 0 
          0.179578 0.134453 0 
          0.178814 0.134992 0 
          0.105459 0.117768 0 
          0.150563 0.108644 0 
          0.0504224 0.113692 0 
          0.125133 0.109855 0 
          0.310739 0.0430803 0 
          0.339284 0.0430447 0 
          0.316079 0.0413901 0 
          0.328063 0.0423396 0 
          0.346873 0.0396841 0 
          0.316106 0.0348317 0 
          0.332075 0.0326548 0 
          0.331368 0.0320593 0 
          0.346941 0.0316764 0 
          0.354711 0.0207675 0 
          0.360109 0.0195439 0 
          0.339627 0.013696 0 
          0.342649 0.0115444 0 
          0.345159 0.0114819 0 
          0.289731 0.0108593 0 
          0.362567 0.012684 0 
          0.316102 0.0104314 0 
          0.377686 0.00918456 0 
          0.345194 0.00700975 0 
          0.300991 0.0057683 0 
          0.390209 0.00477952 0 
          0.381961 0.00173494 0 
          0.309776 -0.000652098 0 
          0.343969 -0.000280043 0 
          0.381289 3.44331e-05 0 
          0.381 0.000352059 0 
          0.287076 0.112558 0 
          0.312644 0.0955474 0 
          0.314121 0.0781267 0 
          0.310113 0.075941 0 
          0.34151 0.0733311 0 
          0.332123 0.0605634 0 
          0.345975 0.0582974 0 
          0.339488 0.0562012 0 
          0.333141 0.095059 0 
          0.173841 0.0337696 0 
          0.212103 0.0485381 0 
          0.145721 0.0196861 0 
          0.245016 0.0396668 0 
          0.248885 0.0276134 0 
          0.224389 0.0210243 0 
          0.202483 0.014421 0 
          0.241687 0.0167296 0 
          0.174733 0.0100915 0 
          0.223251 0.0129794 0 
          0.276724 0.015848 0 
          0.231691 0.0100949 0 
          0.210489 0.00757735 0 
          0.182844 0.00567213 0 
          0.178474 0.00627977 0 
          0.191327 0.108775 0 
          0.203283 0.089769 0 
          0.162161 0.0770246 0 
          0.166494 0.0778496 0 
          0.233762 0.096579 0 
          0.245181 0.100743 0 
          0.234372 0.13637 0 
          0.224775 0.07245 0 
          0.165383 0.0649438 0 
          0.196 0.0615586 0 
          0.257923 0.0652581 0 
          0.273607 0.0611431 0 
          0.279191 0.0588707 0 
          0.269247 0.0554279 0 
          0.283322 0.058261 0 
          0.191211 0.23809 0 
          0.214492 0.214602 0 
          0.19881 0.230096 0 
          0.21386 0.214909 0 
          0.254082 0.172835 0 
          0.234735 0.188986 0 
          0.250689 0.168205 0 
          0.228193 0.188037 0 
          0.245961 0.171585 0 
          0.299251 0.127451 0 
          0.282249 0.140826 0 
          0.00729309 0.309098 0 
          0.100579 0.283831 0 
          0.0459529 0.29806 0 
          0.0559054 0.298618 0 
          0.0462109 0.295181 0 
          0.0311238 0.300319 0 
          0.0724758 0.280345 0 
          0.123785 0.250838 0 
          0.16509 0.251247 0 
          0.0929232 0.246022 0 
          0.172176 0.231699 0 
          0.120163 0.225757 0 
          0.179985 0.243033 0 
          0.0822885 0.222711 0 
          0.0891535 0.214437 0 
          0.167292 0.185203 0 
          0.163217 0.271994 0 
          0.155778 0.287601 0 
          0.19711 0.205436 0 
          0.202099 0.183033 0 
          0.217892 0.177575 0 
          0.202357 0.209186 0 
          0.161266 0.282568 0 
          0.236305 0.161646 0 
          0.196044 0.163611 0 
          0.202411 0.225824 0 
          0.213953 0.210874 0 
          0.224583 0.196458 0 
          0.21768 0.208193 0 
          0.230868 0.186216 0 
          0.237585 0.147056 0 
          0.247978 0.165019 0 
          0.246103 0.165635 0 
          0.236724 0.140684 0 
          0.198502 0.235054 0 
          0.107932 0.351122 0 
          0.116157 0.343962 0 
          0.029468 0.388313 0 
          0.124463 0.328453 0 
          0.111798 0.335257 0 
          0.0929869 0.346166 0 
          0.0707413 0.357574 0 
          0.110199 0.3348 0 
          0.0468386 0.37417 0 
          0.0809841 0.349944 0 
          0.132597 0.324595 0 
          0.149278 0.300544 0 
          0.0887912 0.332047 0 
          0.0358487 0.337206 0 
          0.0346277 0.339571 0 
          0.155769 0.277754 0 
          0.160746 0.274544 0 
          0.118836 0.297346 0 
          0.0803203 0.313167 0 
          0.17618 0.257993 0 
          0.121285 -0.32773 0 
          0.0937427 -0.387945 0 
          0.0861127 -0.399879 0 
          0.0871721 -0.398639 0 
          0.0629311 -0.417704 0 
          0.0484018 -0.423284 0 
          0.103078 -0.363805 0 
          0.0112009 -0.458877 0 
          0.0923065 -0.374589 0 
          0.0931305 -0.365595 0 
          0.0730561 -0.423215 0 
          0.0609512 -0.438289 0 
          0.085205 -0.391303 0 
          0.0827841 -0.391284 0 
          0.0796853 -0.383677 0 
          0.0724218 -0.421909 0 
          0.0314495 -0.470829 0 
          0.0261154 -0.473787 0 
          0.0661495 -0.379609 0 
          0.0591412 -0.437114 0 
          0.0213377 -0.504533 0 
          0.140657 -0.177486 0 
          0.126594 -0.163343 0 
          0.14177 -0.184609 0 
          0.142576 -0.207147 0 
          0.0963381 -0.148994 0 
          0.132488 -0.216889 0 
          0.134548 -0.221166 0 
          0.108126 -0.192509 0 
          0.108209 -0.188639 0 
          0.102896 -0.182912 0 
          0.105222 -0.199163 0 
          0.0951649 -0.183305 0 
          0.131549 -0.270992 0 
          0.0786932 -0.164978 0 
          0.111033 -0.233153 0 
          0.11589 -0.243953 0 
          0.135938 -0.293938 0 
          0.0991411 -0.22904 0 
          0.069182 -0.174394 0 
          0.0805911 -0.267971 0 
          0.0457712 -0.210628 0 
          0.0748735 -0.314614 0 
          0.100942 -0.325334 0 
          0.0401804 -0.344814 0 
          0.0122304 -0.514452 0 
          0.0299648 -0.500741 0 
          0.0192579 -0.344632 0 
          0.0192973 -0.36572 0 
          0.0342864 -0.434297 0 
          0.0323096 -0.434012 0 
          0.0195615 -0.518508 0 
          0.00882067 -0.380185 0 
          0.0253215 -0.489526 0 
          0.0186523 -0.524326 0 
          -0.0375761 -0.314271 0 
          0.00807642 -0.46646 0 
          0.0137784 -0.509702 0 
          0.00606793 -0.552455 0 
          0.0100905 -0.495253 0 
          0.0113616 -0.160655 0 
          0.0270704 -0.207256 0 
          0.00724726 -0.199978 0 
          0.00955861 -0.230808 0 
          0.0227078 -0.260975 0 
          -0.0585117 -0.125446 0 
          -0.0196102 -0.242736 0 
          -0.107209 -0.115515 0 
          -0.122371 -0.11302 0 
          -0.156689 -0.116189 0 
          -0.152312 -0.118459 0 
          -0.17567 -0.0968296 0 
          -0.0724176 -0.254503 0 
          -0.15834 -0.146938 0 
          -0.173887 -0.0882479 0 
          -0.243631 -0.076126 0 
          0.118329 -0.0996201 0 
          0.0809916 -0.0563456 0 
          0.0644798 -0.066018 0 
          0.0669727 -0.0621762 0 
          0.090561 -0.0982922 0 
          0.0508881 -0.0749757 0 
          0.0975738 -0.0612633 0 
          0.124075 -0.112038 0 
          0.133978 -0.119172 0 
          0.0611223 -0.115648 0 
          0.125432 -0.124597 0 
          0.128218 -0.131479 0 
          -0.00934896 -0.0764123 0 
          0.123511 -0.133247 0 
          0.0364118 -0.129637 0 
          -0.0550911 -0.0389663 0 
          -0.0246826 -0.0240433 0 
          0.0342098 -0.0170454 0 
          -0.005852 -0.0276606 0 
          0.0007117 -0.00798929 0 
          0.0209948 -0.00356853 0 
          0.0842402 -0.0172422 0 
          0.096435 -0.0308042 0 
          0.0331259 -0.0400356 0 
          0.103143 -0.0313632 0 
          -0.0366804 -0.0359506 0 
          0.021409 -0.0436477 0 
          0.0796424 -0.0455375 0 
          -0.0293492 0.00011112 0 
          -0.0703554 -0.104079 0 
          -0.118985 -0.0695076 0 
          -0.0593213 -0.0693651 0 
          -0.118002 -0.0810119 0 
          -0.207191 -0.0684587 0 
          -0.210593 -0.0608207 0 
          -0.216739 -0.0585206 0 
          -0.215353 -0.0579965 0 
          -0.153456 -0.0518543 0 
          -0.180206 -0.0412507 0 
          -0.0663829 -0.0422598 0 