<?xml version="1.0"?>
<VTKFile type="UnstructuredGrid" version="0.1" byte_order="LittleEndian">
  <UnstructuredGrid>
    <Piece NumberOfPoints="1000" NumberOfCells="1000">
      <Points>
        <DataArray name="Position" type="Float64" NumberOfComponents="3" Format="ascii">
          0.183742 0.0175466 0.0
          0.117933 0.0215727 0.0
          0.162594 0.0293302 0.0
          0.14655 0.0324996 0.0
          0.130198 0.0463255 0.0
          0.116813 0.0568831 0.0
          0.146058 0.0577956 0.0
          0.188143 0.0618124 0.0
          0.21595 0.0686785 0.0
          0.0908969 0.066983 0.0
          0.188222 0.0806657 0.0
          0.228165 0.0833276 0.0
          0.00385702 0.0808272 0.0
          0.111235 0.0871691 0.0
          0.0945916 0.0880619 0.0
          0.0248702 0.0982932 0.0
          0.241054 0.101893 0.0
          0.163872 0.103355 0.0
          0.156763 0.116514 0.0
          0.466376 0.0256571 0.0
          0.401612 0.0792074 0.0
          0.479353 0.095769 0.0
          0.406884 0.09149 0.0
          0.393511 0.0968193 0.0
          0.324239 0.0292498 0.0
          0.323134 0.0641479 0.0
          0.314073 0.0451413 0.0
          0.440126 0.107501 0.0
          0.307616 0.0824086 0.0
          0.279107 0.0501904 0.0
          0.280295 0.0448293 0.0
          0.259906 0.102982 0.0
          0.253491 0.0857831 0.0
          0.129283 0.142368 0.0
          0.110672 0.144065 0.0
          0.0259196 0.141504 0.0
          0.206753 0.14828 0.0
          0.183 0.157951 0.0
          0.0413475 0.157342 0.0
          0.0470633 0.160708 0.0
          0.225892 0.179627 0.0
          0.151518 0.184214 0.0
          0.23341 0.199976 0.0
          0.248891 0.20269 0.0
          0.0585871 0.203782 0.0
          0.224931 0.21314 0.0
          0.00168077 0.214111 0.0
          0.208878 0.22184 0.0
          0.132186 0.218998 0.0
          0.0963251 0.226609 0.0
          0.153798 0.232211 0.0
          0.15239 0.243413 0.0
          0.0957013 0.243149 0.0
          0.2091 0.246205 0.0
          0.481238 0.145578 0.0
          0.393988 0.164933 0.0
          0.454608 0.177601 0.0
          0.439231 0.177435 0.0
          0.365628 0.190919 0.0
          0.332661 0.133707 0.0
          0.319373 0.196617 0.0
          0.421397 0.209938 0.0
          0.381189 0.206623 0.0
          0.309861 0.167989 0.0
          0.300567 0.149539 0.0
          0.33637 0.215877 0.0
          0.292091 0.142505 0.0
          0.37575 0.229771 0.0
          0.395577 0.234225 0.0
          0.349905 0.23617 0.0
          0.258629 0.12885 0.0
          0.257788 0.165901 0.0
          0.259528 0.248585 0.0
          0.732361 0.0183174 0.0
          0.739508 0.000204529 0.0
          0.703807 0.0444 0.0
          0.70088 0.0383538 0.0
          0.667718 0.0215835 0.0
          0.654454 0.0645817 0.0
          0.656003 0.0892997 0.0
          0.686174 0.110005 0.0
          0.582177 0.0298588 0.0
          0.541513 0.00227539 0.0
          0.546513 0.0761781 0.0
          0.535194 0.0466157 0.0
          0.528442 0.0918697 0.0
          0.518138 0.00990457 0.0
          0.999488 0.106943 0.0
          0.965072 0.0295308 0.0
          0.961919 0.0840208 0.0
          0.953861 0.0538349 0.0
          0.937571 0.0981391 0.0
          0.938303 0.108231 0.0
          0.938579 0.103511 0.0
          0.925888 0.0758215 0.0
          0.909739 0.0463874 0.0
          0.95619 0.121577 0.0
          0.864835 0.0821283 0.0
          0.866539 0.0163456 0.0
          0.86752 0.0177342 0.0
          0.841145 0.0602535 0.0
          0.807537 0.0628925 0.0
          0.81108 0.0160154 0.0
          0.795588 0.0721896 0.0
          0.778593 0.00478439 0.0
          0.765393 0.078447 0.0
          0.722947 0.160507 0.0
          0.685958 0.205953 0.0
          0.693944 0.215702 0.0
          0.677687 0.131208 0.0
          0.667416 0.18342 0.0
          0.665648 0.142389 0.0
          0.615994 0.170445 0.0
          0.622829 0.193803 0.0
          0.579742 0.210529 0.0
          0.564764 0.149697 0.0
          0.561754 0.156675 0.0
          0.555717 0.175042 0.0
          0.546505 0.225546 0.0
          0.538879 0.197959 0.0
          0.526963 0.172508 0.0
          0.527133 0.192109 0.0
          0.976804 0.203449 0.0
          0.912384 0.127732 0.0
          0.887751 0.217697 0.0
          0.891771 0.220724 0.0
          0.888608 0.131127 0.0
          0.879114 0.239773 0.0
          0.869454 0.219091 0.0
          0.879235 0.172826 0.0
          0.860402 0.152565 0.0
          0.804823 0.183888 0.0
          0.792909 0.165545 0.0
          0.793601 0.245437 0.0
          0.781153 0.24042 0.0
          0.766228 0.247105 0.0
          0.895831 0.249202 0.0
          0.752221 0.184278 0.0
          0.234743 0.261196 0.0
          0.126359 0.263655 0.0
          0.151762 0.263241 0.0
          0.169171 0.285837 0.0
          0.130554 0.287613 0.0
          0.137213 0.293587 0.0
          0.186376 0.29902 0.0
          0.0619992 0.297864 0.0
          0.0519692 0.299416 0.0
          0.158134 0.318006 0.0
          0.204912 0.331988 0.0
          0.184337 0.349578 0.0
          0.0246637 0.34838 0.0
          0.108169 0.364588 0.0
          0.0915316 0.366763 0.0
          0.0532248 0.367891 0.0
          0.495567 0.260936 0.0
          0.478528 0.263226 0.0
          0.479173 0.267198 0.0
          0.324372 0.294008 0.0
          0.452662 0.315001 0.0
          0.436071 0.329399 0.0
          0.308563 0.311437 0.0
          0.365608 0.325178 0.0
          0.292804 0.316774 0.0
          0.309008 0.326993 0.0
          0.422914 0.348237 0.0
          0.301007 0.339185 0.0
          0.268715 0.312206 0.0
          0.332692 0.351375 0.0
          0.472322 0.361022 0.0
          0.368386 0.362967 0.0
          0.254227 0.368902 0.0
          0.488041 0.374752 0.0
          0.221371 0.385454 0.0
          0.186165 0.385288 0.0
          0.0791952 0.39539 0.0
          0.0977609 0.448221 0.0
          0.206338 0.488449 0.0
          0.106352 0.476075 0.0
          0.0534817 0.480197 0.0
          0.455347 0.375379 0.0
          0.322042 0.375884 0.0
          0.405373 0.417489 0.0
          0.35331 0.418337 0.0
          0.32845 0.423656 0.0
          0.405546 0.443763 0.0
          0.335182 0.432191 0.0
          0.371996 0.464769 0.0
          0.270455 0.386879 0.0
          0.408367 0.486323 0.0
          0.387596 0.480062 0.0
          0.338436 0.478995 0.0
          0.437002 0.489499 0.0
          0.328909 0.491865 0.0
          0.731633 0.259602 0.0
          0.682731 0.314337 0.0
          0.719603 0.329125 0.0
          0.653491 0.317754 0.0
          0.65967 0.265144 0.0
          0.634228 0.305056 0.0
          0.632154 0.298707 0.0
          0.62704 0.271876 0.0
          0.745855 0.349474 0.0
          0.601972 0.313828 0.0
          0.642176 0.343009 0.0
          0.590944 0.298601 0.0
          0.582392 0.338854 0.0
          0.582166 0.310972 0.0
          0.537253 0.306089 0.0
          0.668537 0.367111 0.0
          0.519896 0.35983 0.0
          0.952543 0.325709 0.0
          0.952269 0.335374 0.0
          0.961529 0.282026 0.0
          0.914907 0.340751 0.0
          0.906336 0.28972 0.0
          0.893958 0.261426 0.0
          0.866419 0.325097 0.0
          0.85102 0.290639 0.0
          0.845151 0.273825 0.0
          0.838614 0.261781 0.0
          0.924888 0.371474 0.0
          0.812719 0.267612 0.0
          0.798643 0.312012 0.0
          0.787313 0.264279 0.0
          0.772225 0.278161 0.0
          0.771343 0.278689 0.0
          0.756959 0.364034 0.0
          0.732763 0.388854 0.0
          0.698263 0.431938 0.0
          0.722197 0.420461 0.0
          0.669204 0.392437 0.0
          0.603632 0.428754 0.0
          0.594999 0.376644 0.0
          0.600065 0.461098 0.0
          0.543066 0.452225 0.0
          0.522151 0.416841 0.0
          0.636203 0.497773 0.0
          0.974462 0.485014 0.0
          0.955442 0.472806 0.0
          0.954072 0.43294 0.0
          0.962718 0.416392 0.0
          0.925111 0.46361 0.0
          0.88026 0.480702 0.0
          0.901806 0.426645 0.0
          0.910951 0.405791 0.0
          0.852741 0.442933 0.0
          0.81591 0.39525 0.0
          0.785512 0.417874 0.0
          0.762313 0.442387 0.0
          1.24772 0.00269972 0.0
          1.21448 0.0301435 0.0
          1.21297 0.0908055 0.0
          1.2051 0.0491455 0.0
          1.1858 0.11643 0.0
          1.16632 0.12248 0.0
          1.14594 0.0697537 0.0
          1.15189 0.110096 0.0
          1.15503 0.0583088 0.0
          1.14282 0.0714102 0.0
          1.1269 0.107477 0.0
          1.07826 0.0146067 0.0
          1.06869 0.0805756 0.0
          1.0707 0.0118401 0.0
          1.05089 0.0547013 0.0
          1.03445 0.116439 0.0
          1.0328 0.0573283 0.0
          1.4886 0.086638 0.0
          1.47887 0.0109221 0.0
          1.41852 0.0838493 0.0
          1.39862 0.0253791 0.0
          1.40066 0.0823298 0.0
          1.37106 0.0901324 0.0
          1.36303 0.0288425 0.0
          1.34749 0.0901666 0.0
          1.35134 0.0465566 0.0
          1.33691 0.033885 0.0
          1.32612 0.0264516 0.0
          1.32962 0.11254 0.0
          1.31961 0.102184 0.0
          1.3045 0.0910638 0.0
          1.28568 0.0393898 0.0
          1.26932 0.0689604 0.0
          1.26172 0.0370036 0.0
          1.22631 0.176444 0.0
          1.19663 0.223136 0.0
          1.20129 0.199612 0.0
          1.1679 0.133771 0.0
          1.1235 0.210681 0.0
          1.10754 0.230328 0.0
          1.08602 0.200813 0.0
          1.09494 0.137135 0.0
          1.05644 0.149517 0.0
          1.03414 0.168914 0.0
          1.02132 0.24796 0.0
          1.00722 0.197153 0.0
          1.0047 0.151215 0.0
          1.47895 0.230038 0.0
          1.42803 0.222383 0.0
          1.42358 0.201226 0.0
          1.42454 0.190706 0.0
          1.37342 0.21343 0.0
          1.37914 0.19755 0.0
          1.36705 0.166588 0.0
          1.3497 0.199253 0.0
[...]
      <PointData Scalars="scalars">
        <DataArray type="Float64" Name="velocity" NumberOfComponents="3" Format="ascii">
          0.160028 -0.0152598 0 
          0.105008 -0.0198087 0 
          0.14255 -0.0260045 0 
          0.129159 -0.0292039 0 
          0.115255 -0.0421042 0 
          0.103761 -0.0521332 0 
          0.128434 -0.0518485 0 
          0.162958 -0.0532868 0 
          0.185021 -0.0572827 0 
          0.0813512 -0.0622741 0 
          0.162515 -0.0694085 0 
          0.1941 -0.0682908 0 
          0.00354756 -0.0770252 0 
          0.0985562 -0.0799955 0 
          0.0842809 -0.0815935 0 
          0.0226546 -0.0933139 0 
          0.203214 -0.0818273 0 
          0.142047 -0.0909411 0 
          0.135795 -0.103069 0 
          0.350021 -0.0133752 0 
          0.312082 -0.0475328 0 
          0.350735 -0.0474072 0 
          0.313955 -0.0541282 0 
          0.305835 -0.058914 0 
          0.266286 -0.0206581 0 
          0.264282 -0.0451384 0 
          0.258913 -0.0323849 0 
          0.329996 -0.0586642 0 
          0.252735 -0.0594524 0 
          0.234004 -0.0382041 0 
          0.23503 -0.0340816 0 
          0.217467 -0.0803226 0 
          0.213553 -0.0677454 0 
          0.112318 -0.128451 0 
          0.0967701 -0.131628 0 
          0.0233934 -0.133903 0 
          0.174039 -0.123923 0 
          0.154922 -0.135441 0 
          0.0369546 -0.148104 0 
          0.0419331 -0.150962 0 
          0.186217 -0.145416 0 
          0.128527 -0.162148 0 
          0.189807 -0.159288 0 
          0.200718 -0.157493 0 
          0.0512058 -0.18954 0 
          0.182235 -0.171254 0 
          0.00149774 -0.201454 0 
          0.169588 -0.181791 0 
          0.111232 -0.194628 0 
          0.0820305 -0.206179 0 
          0.127276 -0.201963 0 
          0.125376 -0.211459 0 
          0.0808439 -0.220641 0 
          0.167145 -0.200342 0 
          0.343509 -0.0706294 0 
          0.296914 -0.0983829 0 
          0.324659 -0.0911099 0 
          0.317524 -0.0946566 0 
          0.276564 -0.119716 0 
          0.265063 -0.0913251 0 
          0.248282 -0.134949 0 
          0.301406 -0.114992 0 
          0.281943 -0.124388 0 
          0.246343 -0.118583 0 
          0.242375 -0.107938 0 
          0.255145 -0.142167 0 
          0.237353 -0.1046 0 
          0.273888 -0.138354 0 
          0.282782 -0.134534 0 
          0.258647 -0.149847 0 
          0.214814 -0.10036 0 
          0.21106 -0.128377 0 
          0.20196 -0.186815 0 
          0.443052 -0.00394404 0 
          0.444853 -4.2964e-05 0 
          0.435029 -0.0106746 0 
          0.434853 -0.00935161 0 
          0.427341 -0.00602014 0 
          0.420012 -0.0186335 0 
          0.416745 -0.0253935 0 
          0.420421 -0.0276787 0 
          0.399562 -0.0111336 0 
          0.384532 -0.000967954 0 
          0.381985 -0.0312557 0 
          0.380273 -0.0199495 0 
          0.372694 -0.0395788 0 
          0.374619 -0.00449745 0 
          0.456976 -0.000794931 0 
          0.469491 -0.000919272 0 
          0.461736 -0.0027202 0 
          0.466603 -0.00206904 0 
          0.457583 -0.0047761 0 
          0.455048 -0.00518416 0 
          0.456294 -0.00495124 0 
          0.461745 -0.00435381 0 
          0.465113 -0.00324082 0 
          0.451979 -0.00431196 0 
          0.455692 -0.00835449 0 
          0.463621 -0.00168868 0 
          0.463666 -0.0018177 0 
          0.456789 -0.00728694 0 
          0.451979 -0.00927122 0 
          0.456754 -0.0023594 0 
          0.448773 -0.0112973 0 
          0.45193 -0.000837279 0 
          0.442833 -0.0141942 0 
          0.413881 -0.0337954 0 
          0.388876 -0.0486901 0 
          0.386032 -0.0489226 0 
          0.413203 -0.0338346 0 
          0.394059 -0.0475446 0 
          0.407181 -0.0382275 0 
          0.385387 -0.0537827 0 
          0.379162 -0.0586888 0 
          0.36083 -0.0728439 0 
          0.375185 -0.0566103 0 
          0.372344 -0.0595848 0 
          0.365145 -0.0670912 0 
          0.345066 -0.0857937 0 
          0.352313 -0.078699 0 
          0.355679 -0.0722768 0 
          0.350078 -0.0794543 0 
          0.41903 -0.00404286 0 
          0.447961 -0.00833933 0 
          0.40781 -0.0166033 0 
          0.406402 -0.0161794 0 
          0.445207 -0.0107577 0 
          0.394635 -0.0191753 0 
          0.405797 -0.0194103 0 
          0.428958 -0.0148622 0 
          0.435402 -0.0154381 0 
          0.416831 -0.0256645 0 
          0.42286 -0.0250095 0 
          0.384171 -0.0341132 0 
          0.385736 -0.0358221 0 
          0.380233 -0.0392916 0 
          0.389817 -0.0169734 0 
          0.409634 -0.0333734 0 
          0.183272 -0.203723 0 
          0.103988 -0.233179 0 
          0.12337 -0.227717 0 
          0.134114 -0.241271 0 
          0.105514 -0.251911 0 
          0.110021 -0.255221 0 
          0.144792 -0.246225 0 
          0.0516058 -0.271811 0 
          0.0434458 -0.27425 0 
          0.122831 -0.268712 0 
          0.15252 -0.263032 0 
          0.136478 -0.282792 0 
          0.0202845 -0.318095 0 
          0.0831143 -0.317544 0 
          0.071006 -0.323111 0 
          0.0423494 -0.330942 0 
          0.315087 -0.112871 0 
          0.308418 -0.119578 0 
          0.307101 -0.120753 0 
          0.231018 -0.190518 0 
          0.277998 -0.146871 0 
          0.266056 -0.158499 0 
          0.218107 -0.206218 0 
          0.241111 -0.187899 0 
          0.208327 -0.215902 0 
          0.214062 -0.214039 0 
          0.253062 -0.170293 0 
          0.206558 -0.223874 0 
          0.195925 -0.223823 0 
          0.217593 -0.214333 0 
          0.259941 -0.15063 0 
          0.227688 -0.201371 0 
          0.174584 -0.263004 0 
          0.255018 -0.146016 0 
          0.152412 -0.289457 0 
          0.131912 -0.305824 0 
          0.0603507 -0.347787 0 
          0.068865 -0.38081 0 
          0.118023 -0.349695 0 
          0.0711658 -0.396073 0 
          0.0378486 -0.414991 0 
          0.247854 -0.162026 0 
          0.204385 -0.230156 0 
          0.211701 -0.197075 0 
          0.197442 -0.227119 0 
          0.187089 -0.243435 0 
          0.195241 -0.201326 0 
          0.185102 -0.241704 0 
          0.175515 -0.224916 0 
          0.177821 -0.26328 0 
          0.165104 -0.2033 0 
          0.167576 -0.216411 0 
          0.160381 -0.249369 0 
          0.164256 -0.185226 0 
          0.150899 -0.258005 0 
          0.368891 -0.0478033 0 
          0.327041 -0.0663188 0 
          0.320086 -0.0578586 0 
          0.320671 -0.0750584 0 
          0.354512 -0.0655191 0 
          0.326084 -0.079021 0 
          0.32973 -0.078649 0 
          0.344453 -0.0754023 0 
          0.305489 -0.0525312 0 
          0.314774 -0.0904547 0 
          0.300976 -0.0814776 0 
          0.321849 -0.0912714 0 
          0.294971 -0.10112 0 
          0.31271 -0.0964773 0 
          0.305619 -0.110996 0 
          0.284794 -0.0752888 0 
          0.270136 -0.12877 0 
          0.334735 -0.00922196 0 
          0.326262 -0.00933777 0 
          0.369763 -0.00728152 0 
          0.320649 -0.01623 0 
          0.362428 -0.0167117 0 
          0.381833 -0.01782 0 
          0.332623 -0.0252418 0 
          0.358986 -0.0268263 0 
          0.370548 -0.0269952 0 
          0.3781 -0.0274087 0 
          0.291796 -0.0146019 0 
          0.372234 -0.0325717 0 
          0.339408 -0.0384408 0 
          0.37208 -0.0370907 0 
          0.361608 -0.0413257 0 
          0.361171 -0.0415517 0 
          0.293306 -0.0504822 0 
          0.26932 -0.0575719 0 
          0.224554 -0.0679779 0 
          0.23718 -0.060949 0 
          0.262719 -0.0764959 0 
          0.224741 -0.101034 0 
          0.269385 -0.10129 0 
          0.19195 -0.10238 0 
          0.199823 -0.127103 0 
          0.22953 -0.13524 0 
          0.149272 -0.0864195 0 
          0.158054 -0.00459646 0 
          0.174473 -0.00814285 0 
          0.224815 -0.00885828 0 
          0.244243 -0.00738805 0 
          0.186511 -0.0139693 0 
          0.164184 -0.0225292 0 
          0.231941 -0.0190634 0 
          0.255684 -0.0173498 0 
          0.212376 -0.0291688 0 
          0.265307 -0.0375451 0 
          0.240722 -0.0447098 0 
          0.213022 -0.0501172 0 
          0.451403 0.000472436 0 
          0.455696 0.00441058 0 
          0.447504 0.0128918 0 
          0.455302 0.0067774 0 
          0.444775 0.0139672 0 
          0.445163 0.012887 0 
          0.459233 0.00642021 0 
          0.449987 0.010466 0 
          0.460109 0.0057825 0 
          0.459237 0.00640503 0 
          0.452766 0.00829164 0 
          0.469551 0.000655706 0 
          0.462212 0.0030093 0 
          0.469959 0.000469673 0 
          0.467074 0.00140377 0 
          0.454253 0.00170726 0 
          0.467024 0.000785458 0 
          0.374928 0.0358534 0 
          0.384528 0.00448141 0 
          0.401642 0.0279747 0 
          0.413914 0.00806403 0 
          0.407727 0.025891 0 
          0.415403 0.025498 0 
          0.424645 0.00808158 0 
          0.421794 0.0233818 0 
          0.426621 0.0124234 0 
          0.431439 0.00859616 0 
          0.434603 0.00644986 0 
          0.421661 0.0270373 0 
          0.426219 0.0236681 0 
          0.431748 0.0198968 0 
          0.442742 0.00808369 0 
          0.442393 0.0130174 0 
          0.44744 0.00682322 0 
          0.419401 0.0258277 0 
          0.40056 0.0266726 0 
          0.412005 0.0250199 0 
          0.441575 0.0141694 0 
          0.412614 0.0148188 0 
          0.40255 0.0135601 0 
          0.419447 0.00931555 0 
          0.445913 0.00744111 0 
          0.442929 0.00427385 0 
          0.435536 0.00242467 0 
          0.393596 0.0016728 0 
          0.422494 -0.000338122 0 
          0.442739 -0.000565569 0 
          0.343134 0.08683 0 
          0.361159 0.0717076 0 
          0.370483 0.0648796 0 
          0.373912 0.0621096 0 
          0.378608 0.0572332 0 
          0.383651 0.0547249 0 
          0.39765 0.0450636 0 
          0.389743 0.0494023 0 
          0.421204 0.0291593 0 
          0.417391 0.03082 0 
          0.41684 0.0308355 0 
          0.421887 0.0286315 0 
          0.410144 0.0331918 0 
          0.425984 0.0260485 0 
          0.403611 0.0372773 0 
          0.275105 0.0453197 0 
          0.26694 0.0677539 0 
          0.281941 0.0495272 0 
          0.292213 0.0180855 0 
          0.302667 0.0353579 0 
          0.323536 0.0135087 0 
          0.324826 0.0131181 0 
          0.351573 0.0232098 0 
          0.357502 0.0109401 0 
          0.143046 0.0927189 0 
          0.0299307 0.0610181 0 
          0.123267 0.0469764 0 
          0.0729066 0.0553507 0 
          0.0825595 0.0966934 0 
          0.122313 0.0412851 0 
          0.0872657 0.0234634 0 
          0.00226874 0.084542 0 
          0.00718782 0.0468065 0 
          0.149991 0.0838689 0 
          0.141227 0.000400082 0 
          0.153957 0.0226814 0 
          0.0306709 0.0500677 0 
          0.183186 0.0490047 0 
          0.216484 0.0119241 0 
          0.238573 0.160527 0 
          0.265051 0.144692 0 
          0.21491 0.14693 0 
          0.277445 0.134541 0 
          0.285661 0.118363 0 
          0.294898 0.119782 0 
          0.308949 0.100401 0 
          0.311509 0.102964 0 
          0.301496 0.0832833 0 
          0.304943 0.120066 0 
          0.325857 0.084293 0 
          0.282604 0.0814918 0 
          0.34997 0.0686722 0 
          0.357958 0.0634204 0 
          0.0519265 0.163245 0 
          0.100167 0.183813 0 
          0.122243 0.183223 0 
          0.116446 0.156292 0 
          0.00443594 0.20587 0 
          0.0160516 0.162613 0 
          0.157165 0.181463 0 
          0.0759825 0.140329 0 
          0.177399 0.137269 0 
          0.193874 0.16387 0 
          0.331378 0.042863 0 
          0.339355 0.0346736 0 
          0.376887 0.0283581 0 
          0.37741 0.0309703 0 
          0.382886 0.0234589 0 
          0.377201 0.0235878 0 
          0.318833 0.0218551 0 
          0.348847 0.0219779 0 
          0.378558 0.0322332 0 
          0.364297 0.0134507 0 
          0.334776 0.00871828 0 
          0.351766 0.006494 0 
          0.31207 8.38803e-05 0 
          0.391119 -0.000635768 0 
          0.275763 0.106916 0 
          0.279714 0.122389 0 
          0.306271 0.101141 0 
          0.309567 0.102266 0 
          0.321305 0.0926137 0 
          0.304822 0.110885 0 
          0.324315 0.0897321 0 
          0.309491 0.0884108 0 
          0.31291 0.0848552 0 
          0.283876 0.0839969 0 
          0.306171 0.0819553 0 
          0.317623 0.0772433 0 
          0.343636 0.0692991 0 
          0.359868 0.060292 0 
          0.321046 0.104334 0 
          0.326834 0.0628695 0 
          0.347717 0.0566661 0 
          0.361212 0.0645081 0 
          0.3676 0.0420574 0 
          0.162872 0.0356179 0 
          0.172005 0.0436871 0 
          0.209747 0.0455596 0 
          0.222175 0.0380142 0 
          0.210634 0.0297909 0 
          0.230298 0.0370784 0 
          0.228763 0.0291506 0 
          0.237991 0.0443245 0 
          0.250556 0.0437715 0 
          0.238835 0.0262638 0 
          0.248996 0.0491712 0 
          0.142026 0.0144081 0 
          0.209443 0.020653 0 
          0.228646 0.0223974 0 
          0.25497 0.0224273 0 
          0.271556 0.0385756 0 
          0.165244 0.00871902 0 
          0.266709 0.0157787 0 
          0.240698 0.00904123 0 
          0.288007 0.0078194 0 
          0.284779 0.00664428 0 
          0.235284 0.00063266 0 
          0.161974 0.0965169 0 
          0.171137 0.110841 0 
          0.18867 0.101353 0 
          0.198297 0.0997772 0 
          0.198015 0.127799 0 
          0.226514 0.132629 0 
          0.228347 0.1377 0 
          0.251048 0.0841578 0 
          0.214231 0.0750205 0 
          0.239809 0.132035 0 
          0.255424 0.111107 0 
          0.272369 0.0699242 0 
          0.265581 0.0907505 0 
          0.158232 0.0568178 0 
          0.280898 0.0709178 0 
          0.227811 0.0541248 0 
          0.217113 0.213946 0 
          0.2439 0.181776 0 
          0.253808 0.169599 0 
          0.240583 0.181482 0 
          0.19687 0.2103 0 
          0.270914 0.145353 0 
          0.29607 0.124777 0 
          0.0946977 0.303578 0 
          0.107583 0.298281 0 
          0.116054 0.296111 0 
          0.0911899 0.288042 0 
          0.113589 0.276832 0 
          0.14692 0.274083 0 
          0.0245549 0.29164 0 
          0.0690654 0.2781 0 
          0.0382416 0.285191 0 
          0.115404 0.259738 0 
          0.0592993 0.266759 0 
          0.0602612 0.269177 0 
          0.140753 0.223294 0 
          0.127854 0.228161 0 
          0.173177 0.242997 0 
          0.0607 0.236154 0 
          0.190617 0.200195 0 
          0.16782 0.199136 0 
          0.19622 0.193991 0 
          0.168845 0.194897 0 
          0.164881 0.234777 0 
          0.164351 0.243247 0 
          0.166824 0.246321 0 
          0.176986 0.222455 0 
          0.171479 0.18792 0 
          0.18427 0.229178 0 
          0.151072 0.296856 0 
          0.201065 0.214212 0 
          0.195204 0.175995 0 
          0.174203 0.267622 0 
          0.225779 0.157956 0 
          0.20694 0.220035 0 
          0.176504 0.263797 0 
          0.191566 0.243716 0 
          0.195039 0.240269 0 
          0.194041 0.240901 0 
          0.254645 0.150975 0 
          0.248243 0.135938 0 
          0.191278 0.24283 0 
          0.123012 0.341143 0 
          0.0774521 0.383937 0 
          0.0444255 0.401558 0 
          0.0350856 0.39568 0 
          0.0131712 0.401868 0 
          0.0731404 0.37248 0 
          0.111089 0.339683 0 
          0.0823799 0.363308 0 
          0.0834763 0.356768 0 
          0.137646 0.309497 0 
          0.0335993 0.339307 0 
          0.080726 0.325574 0 
          0.0981968 -0.379335 0 
          0.0864324 -0.399459 0 
          0.0325145 -0.460279 0 
          0.0895235 -0.356392 0 
          0.0872937 -0.363733 0 
          0.0724565 -0.408088 0 
          0.0635832 -0.436388 0 
          0.0461545 -0.467307 0 
          0.00800336 -0.503118 0 
          0.0646187 -0.379988 0 
          0.150171 -0.184925 0 
          0.118376 -0.167227 0 
          0.0732359 -0.155492 0 
          0.110686 -0.255413 0 
          0.0433852 -0.133947 0 
          0.0754832 -0.185562 0 
          0.0535068 -0.213404 0 
          0.0561474 -0.366331 0 
          0.0533164 -0.398926 0 
          0.0549563 -0.419348 0 
          0.0414367 -0.373054 0 
          0.0229785 -0.34851 0 
          0.0260473 -0.36615 0 
          0.0352784 -0.43447 0 
          0.0344182 -0.445944 0 
          0.00247471 -0.529345 0 
          0.0221009 -0.515856 0 
          -0.0330795 -0.292744 0 
          0.00368761 -0.544908 0 
          0.0104616 -0.433099 0 
          0.00851468 -0.544639 0 
          0.0144569 -0.531029 0 
          -0.025795 -0.355291 0 
          -0.0448044 -0.320361 0 
          0.00238128 -0.45982 0 
          -0.0335013 -0.154596 0 
          -0.0422761 -0.135791 0 
          -0.0575274 -0.175473 0 
          -0.0884872 -0.132066 0 
          -0.0210473 -0.235413 0 
          -0.0131694 -0.272423 0 
          0.00614896 -0.30064 0 
          -0.0891819 -0.180614 0 
          -0.123557 -0.149258 0 
          -0.0644541 -0.222668 0 
          -0.0405421 -0.266326 0 
          -0.0757064 -0.238788 0 
          -0.0966241 -0.207018 0 
          -0.159205 -0.144292 0 
          -0.120122 -0.191994 0 
          0.105356 -0.0600027 0 
          0.129082 -0.0846711 0 
          0.0536908 -0.0832907 0 
          0.13319 -0.0650766 0 
          0.0923854 -0.0683725 0 
          0.0393669 -0.0565823 0 
          0.0419274 -0.06761 0 
          0.0572362 -0.0472701 0 
          0.134129 -0.0880787 0 
          0.105866 -0.0789232 0 
          0.111584 -0.0728218 0 
          0.085702 -0.0837275 0 
          0.102315 -0.113775 0 
          0.0470299 -0.0867442 0 
          0.0385829 -0.0816322 0 
          0.0399072 -0.0908269 0 
          0.0276524 -0.0861043 0 
          -0.0187317 -0.0519787 0 
          0.13576 -0.124992 0 
          -0.0433509 -0.00244241 0 
          -0.0101374 -0.0115358 0 
          -0.0544966 -0.017744 0 
          0.0108332 -0.0219208 0 
          -0.0225687 -0.00469918 0 
          -0.0227001 -0.012527 0 
          -0.0110639 -0.0204502 0 
          -0.0178975 -0.00392441 0 
          0.00617443 -0.00577656 0 
          0.075611 -0.0155151 0 
          0.0315855 -0.0390141 0 
          0.0671485 -0.00128196 0 
          0.111875 -0.0123085 0 
          0.135459 -0.00147179 0 
          0.106306 -0.0423521 0 
          -0.0438418 -0.0387904 0 
          -0.0576928 -0.0292652 0 
          -0.0574973 0.00035336 0 
          -0.0848109 -0.0990775 0 
          -0.0703581 -0.0985568 0 
          -0.0426649 -0.093954 0 
          -0.036976 -0.115255 0 
          -0.0390041 -0.100272 0 
          -0.0338874 -0.0813507 0 
          -0.0526357 -0.0483044 0 
          -0.0682502 -0.0469909 0 
          -0.242286 -0.047533 0 
          -0.0963234 -0.0445814 0 
          -0.231155 -0.0619874 0 
          -0.204157 -0.0410646 0 
          -0.0805455 -0.0425009 0 
          -0.201218 -0.0373199 0 
          -0.19338 -0.0363289 0 
          -0.233148 -0.0670742 0 
          -0.174387 -0.0351129 0 
          -0.147854 -0.034797 0 
          -0.288729 -0.0373486 0 
          -0.282234 -0.0229605 0 
          -0.201863 -0.0169814 0 
          -0.24084 -0.0146729 0 
          -0.184028 -0.0202254 0 
          -0.159649 -0.0238204 0 
          -0.101329 -0.0260789 0 
          -0.0851959 -0.0345067 0 
          -0.0979957 -0.018379 0 
          -0.275686 -0.0146073 0 
          -0.0927958 -0.00695444 0 
          -0.289194 -0.0107066 0 
          -0.296544 -0.00664313 0 
          -0.316204 -0.00614995 0 
          -0.13667 -0.0025446 0 
          -0.216281 -0.00279048 0 
          -0.23071 -0.00190618 0 
          -0.290845 -0.00054263 0 