<?xml version="1.0"?>
<VTKFile type="UnstructuredGrid" version="0.1" byte_order="LittleEndian">
  <UnstructuredGrid>
    <Piece NumberOfPoints="1000" NumberOfCells="1000">
      <Points>
        <DataArray name="Position" type="Float64" NumberOfComponents="3" Format="ascii">
          0.183742 0.0175466 0.0
          0.117933 0.0215727 0.0
          0.162593 0.0293303 0.0
          0.14655 0.0324996 0.0
          0.130198 0.0463256 0.0
          0.116813 0.0568832 0.0
          0.146057 0.0577957 0.0
          0.188143 0.0618125 0.0
          0.21595 0.0686786 0.0
          0.0908968 0.0669832 0.0
          0.188222 0.0806658 0.0
          0.228165 0.0833278 0.0
          0.00385701 0.0808274 0.0
          0.111235 0.0871692 0.0
          0.0945915 0.088062 0.0
          0.0248702 0.0982934 0.0
          0.241054 0.101893 0.0
          0.163872 0.103355 0.0
          0.156763 0.116514 0.0
          0.466375 0.0256572 0.0
          0.401611 0.0792075 0.0
          0.479352 0.0957691 0.0
          0.406884 0.0914901 0.0
          0.393511 0.0968194 0.0
          0.324239 0.0292498 0.0
          0.323133 0.064148 0.0
          0.314072 0.0451414 0.0
          0.440126 0.107501 0.0
          0.307615 0.0824087 0.0
          0.279107 0.0501905 0.0
          0.280295 0.0448293 0.0
          0.259905 0.102982 0.0
          0.253491 0.0857832 0.0
          0.129283 0.142368 0.0
          0.110672 0.144065 0.0
          0.0259196 0.141504 0.0
          0.206753 0.14828 0.0
          0.183 0.157951 0.0
          0.0413475 0.157342 0.0
          0.0470632 0.160708 0.0
          0.225892 0.179628 0.0
          0.151518 0.184215 0.0
          0.233409 0.199976 0.0
          0.248891 0.20269 0.0
          0.0585871 0.203782 0.0
          0.224931 0.21314 0.0
          0.00168077 0.214111 0.0
          0.208878 0.22184 0.0
          0.132186 0.218999 0.0
          0.0963251 0.226609 0.0
          0.153798 0.232211 0.0
          0.15239 0.243413 0.0
          0.0957013 0.24315 0.0
          0.2091 0.246206 0.0
          0.481238 0.145578 0.0
          0.393988 0.164933 0.0
          0.454608 0.177601 0.0
          0.439231 0.177435 0.0
          0.365628 0.190919 0.0
          0.332661 0.133707 0.0
          0.319373 0.196618 0.0
          0.421397 0.209938 0.0
          0.381188 0.206623 0.0
          0.309861 0.167989 0.0
          0.300567 0.149539 0.0
          0.33637 0.215877 0.0
          0.29209 0.142505 0.0
          0.37575 0.229771 0.0
          0.395577 0.234225 0.0
          0.349904 0.236171 0.0
          0.258629 0.12885 0.0
          0.257787 0.165901 0.0
          0.259528 0.248585 0.0
          0.73236 0.0183174 0.0
          0.739507 0.000204529 0.0
          0.703807 0.0444 0.0
          0.70088 0.0383538 0.0
          0.667717 0.0215835 0.0
          0.654454 0.0645817 0.0
          0.656003 0.0892998 0.0
          0.686173 0.110005 0.0
          0.582177 0.0298588 0.0
          0.541512 0.00227539 0.0
          0.546512 0.0761782 0.0
          0.535194 0.0466158 0.0
          0.528441 0.0918698 0.0
          0.518138 0.00990458 0.0
          0.999488 0.106943 0.0
          0.965071 0.0295308 0.0
          0.961918 0.0840208 0.0
          0.95386 0.0538349 0.0
          0.93757 0.0981391 0.0
          0.938303 0.108231 0.0
          0.938579 0.103511 0.0
          0.925888 0.0758215 0.0
          0.909739 0.0463874 0.0
          0.95619 0.121577 0.0
          0.864834 0.0821283 0.0
          0.866539 0.0163456 0.0
          0.86752 0.0177342 0.0
          0.841145 0.0602535 0.0
          0.807537 0.0628925 0.0
          0.811079 0.0160154 0.0
          0.795588 0.0721896 0.0
          0.778593 0.00478439 0.0
          0.765393 0.078447 0.0
          0.722947 0.160507 0.0
          0.685958 0.205953 0.0
          0.693944 0.215702 0.0
          0.677687 0.131208 0.0
          0.667416 0.18342 0.0
          0.665648 0.142389 0.0
          0.615993 0.170445 0.0
          0.622828 0.193803 0.0
          0.579742 0.21053 0.0
          0.564763 0.149697 0.0
          0.561754 0.156675 0.0
          0.555717 0.175043 0.0
          0.546505 0.225546 0.0
          0.538878 0.19796 0.0
          0.526963 0.172508 0.0
          0.527133 0.19211 0.0
          0.976803 0.203449 0.0
          0.912384 0.127732 0.0
          0.88775 0.217697 0.0
          0.89177 0.220724 0.0
          0.888607 0.131127 0.0
          0.879114 0.239773 0.0
          0.869454 0.219091 0.0
          0.879235 0.172826 0.0
          0.860402 0.152565 0.0
          0.804822 0.183888 0.0
          0.792908 0.165545 0.0
          0.793601 0.245437 0.0
          0.781153 0.24042 0.0
          0.766228 0.247106 0.0
          0.89583 0.249202 0.0
          0.752221 0.184278 0.0
          0.234743 0.261197 0.0
          0.126359 0.263655 0.0
          0.151762 0.263242 0.0
          0.169171 0.285837 0.0
          0.130554 0.287614 0.0
          0.137213 0.293587 0.0
          0.186376 0.29902 0.0
          0.0619993 0.297864 0.0
          0.0519693 0.299416 0.0
          0.158134 0.318007 0.0
          0.204913 0.331989 0.0
          0.184337 0.349579 0.0
          0.0246638 0.34838 0.0
          0.108169 0.364588 0.0
          0.0915317 0.366763 0.0
          0.0532248 0.367891 0.0
          0.495567 0.260936 0.0
          0.478527 0.263227 0.0
          0.479173 0.267199 0.0
          0.324372 0.294008 0.0
          0.452662 0.315001 0.0
          0.436071 0.329399 0.0
          0.308564 0.311437 0.0
          0.365608 0.325178 0.0
          0.292804 0.316774 0.0
          0.309008 0.326994 0.0
          0.422914 0.348237 0.0
          0.301008 0.339186 0.0
          0.268715 0.312206 0.0
          0.332692 0.351375 0.0
          0.472322 0.361022 0.0
          0.368386 0.362968 0.0
          0.254227 0.368903 0.0
          0.488041 0.374752 0.0
          0.221371 0.385455 0.0
          0.186165 0.385288 0.0
          0.0791953 0.39539 0.0
          0.097761 0.448221 0.0
          0.206338 0.488449 0.0
          0.106352 0.476075 0.0
          0.0534817 0.480197 0.0
          0.455347 0.375379 0.0
          0.322042 0.375884 0.0
          0.405373 0.41749 0.0
          0.35331 0.418338 0.0
          0.32845 0.423657 0.0
          0.405546 0.443763 0.0
          0.335182 0.432192 0.0
          0.371996 0.46477 0.0
          0.270455 0.386879 0.0
          0.408367 0.486323 0.0
          0.387596 0.480063 0.0
          0.338436 0.478996 0.0
          0.437002 0.4895 0.0
          0.328909 0.491865 0.0
          0.731633 0.259602 0.0
          0.682731 0.314338 0.0
          0.719603 0.329125 0.0
          0.653491 0.317755 0.0
          0.65967 0.265144 0.0
          0.634228 0.305056 0.0
          0.632154 0.298708 0.0
          0.62704 0.271876 0.0
          0.745855 0.349474 0.0
          0.601972 0.313828 0.0
          0.642176 0.343009 0.0
          0.590944 0.298601 0.0
          0.582391 0.338855 0.0
          0.582166 0.310973 0.0
          0.537253 0.30609 0.0
          0.668537 0.367111 0.0
          0.519896 0.35983 0.0
          0.952542 0.325709 0.0
          0.952269 0.335374 0.0
          0.961529 0.282026 0.0
          0.914907 0.340751 0.0
          0.906336 0.28972 0.0
          0.893958 0.261425 0.0
          0.866419 0.325097 0.0
          0.85102 0.290639 0.0
          0.845151 0.273825 0.0
          0.838614 0.261781 0.0
          0.924888 0.371474 0.0
          0.812719 0.267612 0.0
          0.798642 0.312012 0.0
          0.787313 0.264279 0.0
          0.772225 0.278161 0.0
          0.771342 0.278689 0.0
          0.756959 0.364034 0.0
          0.732763 0.388854 0.0
          0.698262 0.431938 0.0
          0.722197 0.420461 0.0
          0.669204 0.392437 0.0
          0.603632 0.428754 0.0
          0.594999 0.376644 0.0
          0.600065 0.461098 0.0
          0.543066 0.452226 0.0
          0.522151 0.416842 0.0
          0.636203 0.497773 0.0
          0.974462 0.485014 0.0
          0.955442 0.472806 0.0
          0.954072 0.43294 0.0
          0.962719 0.416392 0.0
          0.925112 0.46361 0.0
          0.88026 0.480702 0.0
          0.901806 0.426644 0.0
          0.910951 0.405791 0.0
          0.852741 0.442933 0.0
          0.81591 0.39525 0.0
          0.785512 0.417874 0.0
          0.762313 0.442387 0.0
          1.24772 0.00269972 0.0
          1.21448 0.0301435 0.0
          1.21297 0.0908054 0.0
          1.2051 0.0491455 0.0
          1.1858 0.11643 0.0
          1.16632 0.12248 0.0
          1.14594 0.0697536 0.0
          1.15189 0.110096 0.0
          1.15503 0.0583088 0.0
          1.14282 0.0714102 0.0
          1.1269 0.107477 0.0
          1.07826 0.0146067 0.0
          1.06869 0.0805756 0.0
          1.0707 0.0118401 0.0
          1.05089 0.0547013 0.0
          1.03445 0.116439 0.0
          1.0328 0.0573282 0.0
          1.4886 0.086638 0.0
          1.47887 0.0109221 0.0
          1.41852 0.0838493 0.0
          1.39862 0.0253791 0.0
          1.40066 0.0823297 0.0
          1.37106 0.0901324 0.0
          1.36303 0.0288425 0.0
          1.34749 0.0901666 0.0
          1.35134 0.0465565 0.0
          1.33691 0.033885 0.0
          1.32612 0.0264516 0.0
          1.32962 0.11254 0.0
          1.31961 0.102184 0.0
          1.3045 0.0910637 0.0
          1.28568 0.0393898 0.0
          1.26932 0.0689603 0.0
          1.26172 0.0370035 0.0
          1.22631 0.176444 0.0
          1.19663 0.223135 0.0
          1.20129 0.199612 0.0
          1.1679 0.133771 0.0
          1.1235 0.210681 0.0
          1.10754 0.230328 0.0
          1.08602 0.200813 0.0
          1.09494 0.137135 0.0
          1.05644 0.149517 0.0
          1.03413 0.168914 0.0
          1.02132 0.247959 0.0
          1.00722 0.197153 0.0
          1.0047 0.151215 0.0
          1.47895 0.230038 0.0
          1.42803 0.222383 0.0
          1.42358 0.201226 0.0
          1.42454 0.190706 0.0
          1.37342 0.21343 0.0
          1.37914 0.19755 0.0
          1.36705 0.166588 0.0
          1.3497 0.199253 0.0
[...]
      <PointData Scalars="scalars">
        <DataArray type="Float64" Name="velocity" NumberOfComponents="3" Format="ascii">
          0.160027 -0.0152597 0 
          0.105007 -0.0198087 0 
          0.142549 -0.0260044 0 
          0.129159 -0.0292039 0 
          0.115254 -0.0421042 0 
          0.10376 -0.052133 0 
          0.128434 -0.0518483 0 
          0.162957 -0.0532867 0 
          0.18502 -0.0572826 0 
          0.0813508 -0.062274 0 
          0.162514 -0.0694083 0 
          0.194098 -0.0682907 0 
          0.00354754 -0.077025 0 
          0.0985556 -0.0799953 0 
          0.0842804 -0.0815933 0 
          0.0226545 -0.0933137 0 
          0.203213 -0.0818271 0 
          0.142046 -0.0909409 0 
          0.135794 -0.103068 0 
          0.350019 -0.0133751 0 
          0.31208 -0.0475327 0 
          0.350733 -0.047407 0 
          0.313953 -0.0541281 0 
          0.305834 -0.0589139 0 
          0.266284 -0.0206581 0 
          0.264281 -0.0451383 0 
          0.258912 -0.0323849 0 
          0.329995 -0.058664 0 
          0.252734 -0.0594523 0 
          0.234002 -0.0382041 0 
          0.235028 -0.0340816 0 
          0.217466 -0.0803225 0 
          0.213552 -0.0677453 0 
          0.112317 -0.128451 0 
          0.0967696 -0.131628 0 
          0.0233932 -0.133903 0 
          0.174038 -0.123922 0 
          0.154922 -0.135441 0 
          0.0369544 -0.148103 0 
          0.0419328 -0.150962 0 
          0.186216 -0.145416 0 
          0.128527 -0.162148 0 
          0.189806 -0.159287 0 
          0.200717 -0.157492 0 
          0.0512056 -0.18954 0 
          0.182234 -0.171254 0 
          0.00149773 -0.201454 0 
          0.169588 -0.18179 0 
          0.111232 -0.194628 0 
          0.0820301 -0.206178 0 
          0.127275 -0.201963 0 
          0.125375 -0.211459 0 
          0.0808436 -0.220641 0 
          0.167144 -0.200342 0 
          0.343508 -0.0706292 0 
          0.296913 -0.0983826 0 
          0.324657 -0.0911097 0 
          0.317523 -0.0946563 0 
          0.276563 -0.119716 0 
          0.265061 -0.091325 0 
          0.248281 -0.134948 0 
          0.301405 -0.114991 0 
          0.281942 -0.124388 0 
          0.246342 -0.118583 0 
          0.242374 -0.107938 0 
          0.255144 -0.142167 0 
          0.237352 -0.1046 0 
          0.273887 -0.138353 0 
          0.282781 -0.134534 0 
          0.258646 -0.149847 0 
          0.214813 -0.10036 0 
          0.211059 -0.128376 0 
          0.201959 -0.186815 0 
          0.443051 -0.003944 0 
          0.444852 -4.29636e-05 0 
          0.435027 -0.0106745 0 
          0.434851 -0.00935154 0 
          0.427339 -0.00602009 0 
          0.420011 -0.0186334 0 
          0.416744 -0.0253934 0 
          0.42042 -0.0276785 0 
          0.39956 -0.0111336 0 
          0.384531 -0.000967949 0 
          0.381983 -0.0312555 0 
          0.380272 -0.0199494 0 
          0.372693 -0.0395787 0 
          0.374617 -0.00449743 0 
          0.456975 -0.000795098 0 
          0.46949 -0.000919318 0 
          0.461734 -0.00272031 0 
          0.466602 -0.00206912 0 
          0.457582 -0.0047762 0 
          0.455047 -0.00518426 0 
          0.456293 -0.00495134 0 
          0.461744 -0.00435388 0 
          0.465112 -0.00324086 0 
          0.451978 -0.0043121 0 
          0.455691 -0.0083545 0 
          0.463619 -0.00168868 0 
          0.463664 -0.0018177 0 
          0.456788 -0.00728693 0 
          0.451978 -0.00927117 0 
          0.456753 -0.00235939 0 
          0.448771 -0.0112973 0 
          0.451929 -0.000837272 0 
          0.442832 -0.0141941 0 
          0.41388 -0.0337952 0 
          0.388875 -0.0486899 0 
          0.386031 -0.0489225 0 
          0.413202 -0.0338344 0 
          0.394058 -0.0475444 0 
          0.40718 -0.0382273 0 
          0.385385 -0.0537824 0 
          0.37916 -0.0586885 0 
          0.360828 -0.0728437 0 
          0.375184 -0.0566101 0 
          0.372343 -0.0595846 0 
          0.365143 -0.0670909 0 
          0.345065 -0.0857934 0 
          0.352312 -0.0786987 0 
          0.355677 -0.0722765 0 
          0.350077 -0.0794541 0 
          0.419028 -0.00404305 0 
          0.44796 -0.00833941 0 
          0.407809 -0.0166034 0 
          0.4064 -0.0161794 0 
          0.445206 -0.0107578 0 
          0.394634 -0.0191753 0 
          0.405796 -0.0194104 0 
          0.428957 -0.0148623 0 
          0.4354 -0.0154381 0 
          0.41683 -0.0256644 0 
          0.422859 -0.0250094 0 
          0.38417 -0.0341131 0 
          0.385735 -0.035822 0 
          0.380232 -0.0392915 0 
          0.389815 -0.0169735 0 
          0.409633 -0.0333733 0 
          0.183271 -0.203722 0 
          0.103988 -0.233179 0 
          0.12337 -0.227716 0 
          0.134113 -0.24127 0 
          0.105514 -0.25191 0 
          0.110021 -0.25522 0 
          0.144792 -0.246225 0 
          0.0516057 -0.27181 0 
          0.0434457 -0.274249 0 
          0.12283 -0.268712 0 
          0.15252 -0.263031 0 
          0.136477 -0.282792 0 
          0.0202845 -0.318094 0 
          0.0831142 -0.317543 0 
          0.071006 -0.32311 0 
          0.0423494 -0.330941 0 
          0.315086 -0.11287 0 
          0.308417 -0.119577 0 
          0.3071 -0.120752 0 
          0.231017 -0.190518 0 
          0.277997 -0.146871 0 
          0.266055 -0.158499 0 
          0.218106 -0.206218 0 
          0.24111 -0.187898 0 
          0.208327 -0.215902 0 
          0.214062 -0.214038 0 
          0.253061 -0.170292 0 
          0.206558 -0.223874 0 
          0.195925 -0.223823 0 
          0.217592 -0.214333 0 
          0.25994 -0.15063 0 
          0.227688 -0.201371 0 
          0.174583 -0.263004 0 
          0.255017 -0.146016 0 
          0.152411 -0.289456 0 
          0.131911 -0.305823 0 
          0.0603507 -0.347786 0 
          0.068865 -0.380809 0 
          0.118023 -0.349694 0 
          0.0711658 -0.396072 0 
          0.0378486 -0.41499 0 
          0.247853 -0.162025 0 
          0.204384 -0.230155 0 
          0.2117 -0.197075 0 
          0.197441 -0.227119 0 
          0.187088 -0.243434 0 
          0.19524 -0.201326 0 
          0.185101 -0.241703 0 
          0.175514 -0.224915 0 
          0.177821 -0.26328 0 
          0.165103 -0.203299 0 
          0.167575 -0.216411 0 
          0.160381 -0.249369 0 
          0.164255 -0.185226 0 
          0.150898 -0.258005 0 
          0.36889 -0.0478032 0 
          0.327039 -0.0663188 0 
          0.320085 -0.0578586 0 
          0.32067 -0.0750583 0 
          0.354511 -0.065519 0 
          0.326083 -0.0790209 0 
          0.329729 -0.0786489 0 
          0.344452 -0.0754022 0 
          0.305488 -0.0525313 0 
          0.314773 -0.0904546 0 
          0.300974 -0.0814776 0 
          0.321848 -0.0912713 0 
          0.29497 -0.10112 0 
          0.312709 -0.0964771 0 
          0.305618 -0.110996 0 
          0.284793 -0.0752888 0 
          0.270135 -0.12877 0 
          0.334734 -0.00922214 0 
          0.326261 -0.00933795 0 
          0.369762 -0.0072817 0 
          0.320648 -0.0162302 0 
          0.362427 -0.0167118 0 
          0.381832 -0.0178201 0 
          0.332622 -0.0252419 0 
          0.358985 -0.0268264 0 
          0.370547 -0.0269953 0 
          0.378099 -0.0274087 0 
          0.291795 -0.0146021 0 
          0.372232 -0.0325717 0 
          0.339407 -0.0384408 0 
          0.372079 -0.0370907 0 
          0.361606 -0.0413256 0 
          0.36117 -0.0415517 0 
          0.293305 -0.0504823 0 
          0.269319 -0.0575721 0 
          0.224553 -0.0679782 0 
          0.237179 -0.0609493 0 
          0.262718 -0.076496 0 
          0.22474 -0.101034 0 
          0.269384 -0.10129 0 
          0.191949 -0.10238 0 
          0.199821 -0.127103 0 
          0.229529 -0.13524 0 
          0.14927 -0.0864199 0 
          0.158053 -0.00459673 0 
          0.174472 -0.00814311 0 
          0.224813 -0.00885851 0 
          0.244241 -0.00738826 0 
          0.18651 -0.0139695 0 
          0.164183 -0.0225295 0 
          0.23194 -0.0190637 0 
          0.255682 -0.01735 0 
          0.212375 -0.0291691 0 
          0.265306 -0.0375453 0 
          0.240721 -0.0447101 0 
          0.21302 -0.0501175 0 
          0.451401 0.000472438 0 
          0.455694 0.00441059 0 
          0.447502 0.0128918 0 
          0.455301 0.0067774 0 
          0.444774 0.0139672 0 
          0.445161 0.012887 0 
          0.459231 0.00642016 0 
          0.449986 0.010466 0 
          0.460108 0.00578246 0 
          0.459236 0.00640498 0 
          0.452765 0.00829154 0 
          0.46955 0.000655683 0 
          0.462211 0.00300918 0 
          0.469957 0.000469653 0 
          0.467073 0.00140368 0 
          0.454252 0.00170708 0 
          0.467022 0.000785352 0 
          0.374926 0.0358534 0 
          0.384526 0.00448141 0 
          0.40164 0.0279748 0 
          0.413912 0.00806406 0 
          0.407725 0.0258911 0 
          0.415401 0.0254981 0 
          0.424643 0.00808162 0 
          0.421792 0.0233819 0 
          0.426619 0.0124234 0 
          0.431437 0.00859621 0 
          0.434601 0.0064499 0 
          0.421659 0.0270374 0 
          0.426217 0.0236682 0 
          0.431746 0.0198969 0 
          0.44274 0.00808373 0 
          0.442391 0.0130175 0 
          0.447438 0.00682325 0 
          0.4194 0.0258277 0 
          0.400559 0.0266725 0 
          0.412004 0.0250198 0 
          0.441573 0.0141693 0 
          0.412612 0.0148187 0 
          0.402549 0.0135599 0 
          0.419446 0.00931535 0 
          0.445912 0.00744095 0 
          0.442928 0.00427365 0 
          0.435535 0.00242446 0 
          0.393594 0.00167256 0 
          0.422493 -0.000338351 0 
          0.442738 -0.000565776 0 
          0.343133 0.0868302 0 
          0.361158 0.0717078 0 
          0.370481 0.0648798 0 
          0.37391 0.0621098 0 
          0.378606 0.0572334 0 
          0.383649 0.0547251 0 
          0.397648 0.0450637 0 
          0.389742 0.0494025 0 
          0.421202 0.0291594 0 
          0.417389 0.03082 0 
          0.416838 0.0308356 0 
          0.421885 0.0286316 0 
          0.410143 0.0331919 0 
          0.425982 0.0260486 0 
          0.403609 0.0372774 0 
          0.275104 0.0453196 0 
          0.266939 0.0677538 0 
          0.28194 0.0495271 0 
          0.292211 0.0180855 0 
          0.302666 0.0353579 0 
          0.323534 0.0135087 0 
          0.324824 0.0131181 0 
          0.351571 0.0232098 0 
          0.3575 0.0109401 0 
          0.143046 0.0927187 0 
          0.0299307 0.0610181 0 
          0.123267 0.0469763 0 
          0.0729066 0.0553507 0 
          0.0825594 0.0966933 0 
          0.122313 0.041285 0 
          0.0872656 0.0234633 0 
          0.00226874 0.0845419 0 
          0.00718782 0.0468065 0 
          0.149991 0.0838688 0 
          0.141227 0.000400082 0 
          0.153957 0.0226814 0 
          0.0306709 0.0500676 0 
          0.183186 0.0490046 0 
          0.216483 0.0119241 0 
          0.238572 0.160526 0 
          0.265049 0.144692 0 
          0.214909 0.14693 0 
          0.277443 0.13454 0 
          0.285659 0.118363 0 
          0.294897 0.119782 0 
          0.308947 0.100401 0 
          0.311507 0.102964 0 
          0.301494 0.0832831 0 
          0.304942 0.120066 0 
          0.325856 0.0842929 0 
          0.282602 0.0814917 0 
          0.349968 0.0686722 0 
          0.357956 0.0634205 0 
          0.0519265 0.163245 0 
          0.100167 0.183813 0 
          0.122243 0.183222 0 
          0.116446 0.156292 0 
          0.00443595 0.20587 0 
          0.0160516 0.162613 0 
          0.157165 0.181462 0 
          0.0759824 0.140329 0 
          0.177398 0.137269 0 
          0.193874 0.16387 0 
          0.331377 0.0428629 0 
          0.339353 0.0346735 0 
          0.376886 0.028358 0 
          0.377409 0.0309702 0 
          0.382884 0.0234587 0 
          0.3772 0.0235877 0 
          0.318832 0.0218549 0 
          0.348846 0.0219777 0 
          0.378556 0.0322331 0 
          0.364296 0.0134505 0 
          0.334775 0.00871807 0 
          0.351765 0.00649378 0 
          0.312069 8.36847e-05 0 
          0.391118 -0.000635995 0 
          0.275762 0.106916 0 
          0.279713 0.12239 0 
          0.30627 0.101141 0 
          0.309566 0.102267 0 
          0.321304 0.092614 0 
          0.304821 0.110885 0 
          0.324314 0.0897323 0 
          0.30949 0.0884111 0 
          0.312908 0.0848554 0 
          0.283874 0.0839972 0 
          0.30617 0.0819556 0 
          0.317622 0.0772436 0 
          0.343635 0.0692993 0 
          0.359867 0.0602922 0 
          0.321044 0.104334 0 
          0.326833 0.0628697 0 
          0.347716 0.0566663 0 
          0.361211 0.0645083 0 
          0.367599 0.0420575 0 
          0.162871 0.0356178 0 
          0.172004 0.043687 0 
          0.209746 0.0455595 0 
          0.222174 0.0380141 0 
          0.210633 0.0297908 0 
          0.230297 0.0370783 0 
          0.228762 0.0291505 0 
          0.23799 0.0443244 0 
          0.250555 0.0437714 0 
          0.238834 0.0262637 0 
          0.248995 0.0491712 0 
          0.142024 0.0144079 0 
          0.209442 0.0206528 0 
          0.228645 0.0223972 0 
          0.254969 0.0224271 0 
          0.271555 0.0385755 0 
          0.165243 0.0087188 0 
          0.266708 0.0157786 0 
          0.240697 0.00904104 0 
          0.288006 0.00781921 0 
          0.284778 0.00664409 0 
          0.235283 0.000632472 0 
          0.161973 0.0965172 0 
          0.171136 0.110841 0 
          0.188669 0.101353 0 
          0.198296 0.0997774 0 
          0.198014 0.1278 0 
          0.226512 0.13263 0 
          0.228346 0.137701 0 
          0.251047 0.084158 0 
          0.21423 0.0750207 0 
          0.239808 0.132035 0 
          0.255423 0.111108 0 
          0.272368 0.0699244 0 
          0.26558 0.0907508 0 
          0.158231 0.0568178 0 
          0.280897 0.070918 0 
          0.22781 0.0541248 0 
          0.217112 0.213945 0 
          0.243898 0.181776 0 
          0.253807 0.169599 0 
          0.240582 0.181482 0 
          0.196869 0.210299 0 
          0.270913 0.145353 0 
          0.296069 0.124777 0 
          0.0946977 0.303578 0 
          0.107582 0.298281 0 
          0.116053 0.29611 0 
          0.0911899 0.288042 0 
          0.113589 0.276832 0 
          0.14692 0.274083 0 
          0.0245549 0.29164 0 
          0.0690655 0.2781 0 
          0.0382417 0.285191 0 
          0.115404 0.259737 0 
          0.0592993 0.266758 0 
          0.0602612 0.269177 0 
          0.140753 0.223293 0 
          0.127854 0.228161 0 
          0.173176 0.242996 0 
          0.0607 0.236153 0 
          0.190616 0.200195 0 
          0.167819 0.199136 0 
          0.19622 0.19399 0 
          0.168844 0.194897 0 
          0.16488 0.234777 0 
          0.16435 0.243246 0 
          0.166823 0.246321 0 
          0.176985 0.222454 0 
          0.171478 0.18792 0 
          0.184269 0.229177 0 
          0.151071 0.296856 0 
          0.201064 0.214212 0 
          0.195203 0.175995 0 
          0.174202 0.267621 0 
          0.225778 0.157957 0 
          0.206939 0.220035 0 
          0.176503 0.263797 0 
          0.191565 0.243715 0 
          0.195038 0.240269 0 
          0.19404 0.2409 0 
          0.254644 0.150975 0 
          0.248242 0.135938 0 
          0.191277 0.24283 0 
          0.123011 0.341142 0 
          0.0774519 0.383936 0 
          0.0444254 0.401557 0 
          0.0350856 0.395679 0 
          0.0131712 0.401868 0 
          0.0731402 0.37248 0 
          0.111089 0.339682 0 
          0.0823797 0.363307 0 
          0.0834762 0.356768 0 
          0.137646 0.309496 0 
          0.0335994 0.339307 0 
          0.0807259 0.325574 0 
          0.0981966 -0.379334 0 
          0.0864323 -0.399458 0 
          0.0325145 -0.460278 0 
          0.0895232 -0.356391 0 
          0.0872935 -0.363732 0 
          0.0724563 -0.408087 0 
          0.0635831 -0.436387 0 
          0.0461544 -0.467306 0 
          0.00800335 -0.503117 0 
          0.0646185 -0.379987 0 
          0.15017 -0.184925 0 
          0.118375 -0.167227 0 
          0.0732348 -0.155492 0 
          0.110686 -0.255412 0 
          0.0433841 -0.133947 0 
          0.0754823 -0.185562 0 
          0.0535061 -0.213404 0 
          0.0561472 -0.36633 0 
          0.0533163 -0.398925 0 
          0.0549562 -0.419347 0 
          0.0414365 -0.373053 0 
          0.0229783 -0.34851 0 
          0.0260471 -0.366149 0 
          0.0352783 -0.43447 0 
          0.0344181 -0.445943 0 
          0.00247471 -0.529344 0 
          0.0221009 -0.515855 0 
          -0.0330797 -0.292744 0 
          0.0036876 -0.544907 0 
          0.0104615 -0.433098 0 
          0.00851466 -0.544638 0 
          0.0144569 -0.531028 0 
          -0.0257952 -0.35529 0 
          -0.0448046 -0.32036 0 
          0.00238122 -0.459819 0 
          -0.033502 -0.154595 0 
          -0.0422769 -0.135791 0 
          -0.0575279 -0.175472 0 
          -0.0884879 -0.132065 0 
          -0.0210477 -0.235412 0 
          -0.0131697 -0.272423 0 
          0.00614871 -0.30064 0 
          -0.0891824 -0.180613 0 
          -0.123557 -0.149257 0 
          -0.0644545 -0.222667 0 
          -0.0405424 -0.266325 0 
          -0.0757067 -0.238788 0 
          -0.0966244 -0.207018 0 
          -0.159205 -0.144291 0 
          -0.120122 -0.191994 0 
          0.105354 -0.0600032 0 
          0.12908 -0.0846714 0 
          0.0536894 -0.0832911 0 
          0.133188 -0.0650771 0 
          0.092384 -0.0683729 0 
          0.0393655 -0.0565828 0 
          0.041926 -0.0676105 0 
          0.0572349 -0.0472707 0 
          0.134127 -0.088079 0 
          0.105864 -0.0789236 0 
          0.111583 -0.0728222 0 
          0.0857006 -0.0837279 0 
          0.102313 -0.113775 0 
          0.0470285 -0.0867446 0 
          0.0385815 -0.0816326 0 
          0.0399059 -0.0908272 0 
          0.0276511 -0.0861047 0 
          -0.018733 -0.0519792 0 
          0.135759 -0.124992 0 
          -0.0433523 -0.00244285 0 
          -0.0101388 -0.0115362 0 
          -0.0544979 -0.0177446 0 
          0.0108319 -0.0219214 0 
          -0.0225701 -0.00469962 0 
          -0.0227015 -0.0125275 0 
          -0.0110652 -0.0204507 0 
          -0.0178989 -0.00392484 0 
          0.00617308 -0.00577697 0 
          0.0756097 -0.0155155 0 
          0.0315841 -0.0390147 0 
          0.0671472 -0.00128229 0 
          0.111873 -0.0123089 0 
          0.135458 -0.00147205 0 
          0.106304 -0.0423526 0 
          -0.0438431 -0.038791 0 
          -0.0576941 -0.0292658 0 
          -0.0574987 0.000352935 0 
          -0.0848119 -0.0990776 0 
          -0.0703591 -0.098557 0 
          -0.0426661 -0.0939542 0 
          -0.036977 -0.115255 0 
          -0.0390052 -0.100272 0 
          -0.0338887 -0.081351 0 
          -0.052637 -0.048305 0 
          -0.0682515 -0.0469914 0 
          -0.242287 -0.0475334 0 
          -0.0963246 -0.0445819 0 
          -0.231156 -0.0619876 0 
          -0.204158 -0.0410651 0 
          -0.0805468 -0.0425015 0 
          -0.201219 -0.0373204 0 
          -0.193381 -0.0363295 0 
          -0.233148 -0.0670744 0 
          -0.174388 -0.0351135 0 
          -0.147855 -0.0347976 0 
          -0.28873 -0.037349 0 
          -0.282235 -0.022961 0 
          -0.201864 -0.016982 0 
          -0.240841 -0.0146735 0 
          -0.18403 -0.020226 0 
          -0.15965 -0.023821 0 
          -0.10133 -0.0260795 0 
          -0.0851972 -0.0345073 0 
          -0.0979969 -0.0183795 0 
          -0.275687 -0.0146079 0 
          -0.0927971 -0.00695495 0 
          -0.289195 -0.0107072 0 
          -0.296546 -0.00664368 0 
          -0.316205 -0.0061505 0 
          -0.136672 -0.0025451 0 
          -0.216282 -0.002791 0 
          -0.230712 -0.0019067 0 
          -0.290846 -0.000543129 0 
          -0.238611 -0.000620109 0 