<?xml version="1.0"?>
<VTKFile type="UnstructuredGrid" version="0.1" byte_order="LittleEndian">
  <UnstructuredGrid>
    <Piece NumberOfPoints="1000" NumberOfCells="1000">
      <Points>
        <DataArray name="Position" type="Float64" NumberOfComponents="3" Format="ascii">
          0.146551 0.0596797 0.0
          0.124998 0.105596 0.0
          0.249528 0.0169911 0.0
          0.0802828 0.039036 0.0
          0.0507876 0.049154 0.0
          0.0707525 0.0657835 0.0
          0.220349 0.0462701 0.0
          0.0635571 0.0733198 0.0
          0.125481 0.0942846 0.0
          0.0563308 0.10501 0.0
          0.141805 0.0926768 0.0
          0.288553 0.0477728 0.0
          0.442215 0.0903883 0.0
          0.344488 0.031469 0.0
          0.497587 0.0189757 0.0
          0.498467 0.0205621 0.0
          0.425383 0.00615788 0.0
          0.419115 0.101572 0.0
          0.478411 0.0717133 0.0
          0.260383 0.0782161 0.0
          0.450958 0.0777853 0.0
          0.368286 0.0537649 0.0
          0.390496 0.0248333 0.0
          0.395609 0.00027547 0.0
          0.37067 0.0619853 0.0
          0.263302 0.00381294 0.0
          0.451297 0.0198339 0.0
          0.337386 0.0950014 0.0
          0.0829621 0.178329 0.0
          0.209403 0.196503 0.0
          0.0105931 0.226995 0.0
          0.101565 0.180435 0.0
          0.190487 0.172969 0.0
          0.0482264 0.198236 0.0
          0.0826443 0.136841 0.0
          0.10814 0.218557 0.0
          0.18371 0.185098 0.0
          0.187119 0.150723 0.0
          0.113573 0.182937 0.0
          0.0408604 0.201141 0.0
          0.0955756 0.149891 0.0
          0.00162958 0.187144 0.0
          0.0504515 0.129396 0.0
          0.146665 0.130555 0.0
          0.0722128 0.230452 0.0
          0.039084 0.153334 0.0
          0.0635084 0.130213 0.0
          0.230508 0.16886 0.0
          0.117157 0.218284 0.0
          0.139566 0.169377 0.0
          0.287541 0.238104 0.0
          0.286666 0.249394 0.0
          0.455583 0.203199 0.0
          0.427672 0.235088 0.0
          0.363898 0.154861 0.0
          0.470165 0.221202 0.0
          0.268681 0.125753 0.0
          0.360835 0.18546 0.0
          0.3541 0.20328 0.0
          0.399439 0.213556 0.0
          0.340478 0.130574 0.0
          0.25886 0.154154 0.0
          0.73875 0.120783 0.0
          0.676951 0.0511891 0.0
          0.537204 0.0510874 0.0
          0.630635 0.105465 0.0
          0.568779 0.103969 0.0
          0.70432 0.0132656 0.0
          0.699127 0.0737013 0.0
          0.695964 0.0108487 0.0
          0.571125 0.114365 0.0
          0.66844 0.110208 0.0
          0.588011 0.0305556 0.0
          0.554803 0.0816799 0.0
          0.578858 0.0563138 0.0
          0.658078 0.054763 0.0
          0.500877 0.0948006 0.0
          0.57059 0.109435 0.0
          0.589938 0.0867672 0.0
          0.974649 0.116699 0.0
          0.909774 0.00202736 0.0
          0.785889 0.0584695 0.0
          0.856441 0.0386321 0.0
          0.823373 0.108767 0.0
          0.799166 0.0913506 0.0
          0.795505 0.0484136 0.0
          0.994296 0.0645531 0.0
          0.867134 0.0234623 0.0
          0.819002 0.0998956 0.0
          0.782379 0.0600614 0.0
          0.871326 0.0706476 0.0
          0.984047 0.10386 0.0
          0.942678 0.0506442 0.0
          0.841647 0.0930497 0.0
          0.96308 0.0997413 0.0
          0.929632 0.0273992 0.0
          0.976595 0.105106 0.0
          0.769186 0.0917121 0.0
          0.970182 0.119509 0.0
          0.962561 0.0284633 0.0
          0.550606 0.138458 0.0
          0.537327 0.241943 0.0
          0.661923 0.188875 0.0
          0.553417 0.235798 0.0
          0.558214 0.237754 0.0
          0.531324 0.192045 0.0
          0.5297 0.145904 0.0
          0.509452 0.174256 0.0
          0.590643 0.125581 0.0
          0.6967 0.23029 0.0
          0.747662 0.176322 0.0
          0.681017 0.237698 0.0
          0.680889 0.158263 0.0
          0.633336 0.201086 0.0
          0.645476 0.146995 0.0
          0.699331 0.13722 0.0
          0.886307 0.173836 0.0
          0.907664 0.134277 0.0
          0.890138 0.20703 0.0
          0.88344 0.155338 0.0
          0.934295 0.241112 0.0
          0.783355 0.196229 0.0
          0.981741 0.197332 0.0
          0.908249 0.201989 0.0
          0.793955 0.24595 0.0
          0.917386 0.198245 0.0
          0.854494 0.249253 0.0
          0.984314 0.23852 0.0
          0.968619 0.134035 0.0
          0.856499 0.207109 0.0
          0.793915 0.177312 0.0
          0.857585 0.21442 0.0
          0.0205514 0.36758 0.0
          0.119201 0.348042 0.0
          0.189281 0.31004 0.0
          0.0692303 0.260157 0.0
          0.0180029 0.360355 0.0
          0.134673 0.2934 0.0
          0.236114 0.253068 0.0
          0.215903 0.31812 0.0
          0.0826963 0.346439 0.0
          0.117572 0.272265 0.0
          0.048797 0.325659 0.0
          0.0111739 0.325358 0.0
          0.176918 0.364962 0.0
          0.154491 0.267288 0.0
          0.224739 0.313596 0.0
          0.0572331 0.320005 0.0
          0.0935617 0.32195 0.0
          0.145414 0.339073 0.0
          0.139345 0.305451 0.0
          0.382333 0.359606 0.0
          0.477288 0.331407 0.0
          0.290448 0.354029 0.0
          0.391444 0.289578 0.0
          0.45911 0.301501 0.0
          0.308816 0.321269 0.0
          0.267266 0.283289 0.0
          0.382696 0.280244 0.0
          0.476793 0.332246 0.0
          0.270777 0.312875 0.0
          0.334288 0.284356 0.0
          0.285808 0.278496 0.0
          0.363473 0.257327 0.0
          0.324737 0.254455 0.0
          0.481234 0.290915 0.0
          0.279344 0.317567 0.0
          0.435994 0.326654 0.0
          0.483744 0.312271 0.0
          0.46888 0.289593 0.0
          0.187475 0.387046 0.0
          0.0688772 0.407545 0.0
          0.174767 0.449353 0.0
          0.000744172 0.487523 0.0
          0.153043 0.39034 0.0
          0.188057 0.428181 0.0
          0.210594 0.37792 0.0
          0.164373 0.419425 0.0
          0.117552 0.423485 0.0
          0.0990884 0.47237 0.0
          0.061189 0.484152 0.0
          0.026242 0.461683 0.0
          0.106413 0.450762 0.0
          0.20006 0.427391 0.0
          0.10444 0.383227 0.0
          0.109582 0.422375 0.0
          0.421871 0.402266 0.0
          0.25661 0.434415 0.0
          0.310056 0.460531 0.0
          0.458849 0.478348 0.0
          0.357445 0.473179 0.0
          0.379807 0.41393 0.0
          0.359723 0.437931 0.0
          0.266818 0.423623 0.0
          0.258143 0.439547 0.0
          0.343936 0.444235 0.0
          0.405261 0.448165 0.0
          0.459606 0.400921 0.0
          0.400645 0.418415 0.0
          0.344967 0.426506 0.0
          0.36066 0.380422 0.0
          0.375393 0.408091 0.0
          0.493633 0.408414 0.0
          0.440891 0.457576 0.0
          0.577021 0.276156 0.0
          0.602642 0.298145 0.0
          0.740146 0.317799 0.0
          0.668157 0.31447 0.0
          0.585365 0.341946 0.0
          0.671764 0.359907 0.0
          0.506927 0.307159 0.0
          0.53832 0.302679 0.0
          0.640989 0.338799 0.0
          0.573327 0.26415 0.0
          0.551954 0.316482 0.0
          0.652145 0.275203 0.0
          0.553983 0.259784 0.0
          0.526955 0.293169 0.0
          0.673996 0.32239 0.0
          0.516977 0.354243 0.0
          0.90915 0.324649 0.0
          0.799023 0.327401 0.0
          0.796797 0.370787 0.0
          0.843189 0.352986 0.0
          0.930773 0.354419 0.0
          0.97924 0.342147 0.0
          0.755193 0.270568 0.0
          0.926794 0.34106 0.0
          0.864275 0.325986 0.0
          0.867667 0.277581 0.0
          0.985897 0.293739 0.0
          0.96312 0.332471 0.0
          0.940781 0.329946 0.0
          0.803899 0.323098 0.0
          0.779574 0.283201 0.0
          0.749837 0.394897 0.0
          0.51254 0.416328 0.0
          0.744165 0.380252 0.0
          0.578231 0.447004 0.0
          0.7238 0.454336 0.0
          0.74976 0.426253 0.0
          0.509356 0.446894 0.0
          0.514271 0.494915 0.0
          0.693521 0.409135 0.0
          0.684689 0.390693 0.0
          0.525037 0.475801 0.0
          0.587275 0.417814 0.0
          0.661751 0.438791 0.0
          0.578898 0.474289 0.0
          0.895024 0.395126 0.0
          0.807544 0.460333 0.0
          0.819485 0.42308 0.0
          0.954719 0.417522 0.0
          0.960104 0.414604 0.0
          0.998524 0.474337 0.0
          0.813757 0.483096 0.0
          0.940695 0.496939 0.0
          0.985636 0.402656 0.0
          0.85362 0.427995 0.0
          0.90169 0.457806 0.0
          0.945328 0.397541 0.0
          0.788403 0.421522 0.0
          0.912995 0.491696 0.0
          1.05578 0.061582 0.0
          1.09028 0.0604537 0.0
          1.01918 0.0183906 0.0
          1.03346 0.0779688 0.0
          1.07309 0.0194488 0.0
          1.11925 0.0835414 0.0
          1.09881 0.111978 0.0
          1.1899 0.12388 0.0
          1.12611 0.0166803 0.0
          1.01743 0.0714294 0.0
          1.03512 0.0233422 0.0
          1.13348 0.0541051 0.0
          1.16076 0.0545098 0.0
          1.0569 0.031696 0.0
          1.36151 0.0295311 0.0
          1.48579 0.0929377 0.0
          1.40578 0.10611 0.0
          1.27073 0.0546899 0.0
          1.44814 0.120928 0.0
          1.25068 0.00689241 0.0
          1.34517 0.0141845 0.0
          1.30311 0.0943374 0.0
          1.4453 0.0151631 0.0
          1.33023 0.0973629 0.0
          1.49747 0.0378222 0.0
          1.44181 0.0147853 0.0
          1.24064 0.197435 0.0
          1.18249 0.227657 0.0
          1.16266 0.218721 0.0
          1.08291 0.135581 0.0
          1.22866 0.196243 0.0
          1.1213 0.142884 0.0
          1.19273 0.24886 0.0
          1.09373 0.221931 0.0
          1.12472 0.131738 0.0
          1.19688 0.217386 0.0
          1.09581 0.180804 0.0
          1.212 0.218387 0.0
          1.06459 0.203909 0.0
          1.13438 0.193295 0.0
          1.12796 0.170097 0.0
[...]
      <PointData Scalars="scalars">
        <DataArray type="Float64" Name="velocity" NumberOfComponents="3" Format="ascii">
          0 0 0 
          0 0 0 
          0 0 0 
          0 0 0 
          0 0 0 
          0 0 0 
          0 0 0 
          0 0 0 
          0 0 0 
          0 0 0 
          0 0 0 
          0 0 0 
          0 0 0 
          0 0 0 
          0 0 0 
          0 0 0 
          0 0 0 
          0 0 0 
          0 0 0 
          0 0 0 
          0 0 0 
          0 0 0 
          0 0 0 
          0 0 0 
          0 0 0 
          0 0 0 
          0 0 0 
          0 0 0 
          0 0 0 
          0 0 0 
          0 0 0 
          0 0 0 
          0 0 0 
          0 0 0 
          0 0 0 
          0 0 0 
          0 0 0 
          0 0 0 
          0 0 0 
          0 0 0 
          0 0 0 
          0 0 0 
          0 0 0 
          0 0 0 
          0 0 0 
          0 0 0 
          0 0 0 
          0 0 0 
          0 0 0 
          0 0 0 
          0 0 0 
          0 0 0 
          0 0 0 
          0 0 0 
          0 0 0 
          0 0 0 
          0 0 0 
          0 0 0 
          0 0 0 
          0 0 0 
          0 0 0 
          0 0 0 
          0 0 0 
          0 0 0 
          0 0 0 
          0 0 0 
          0 0 0 
          0 0 0 
          0 0 0 
          0 0 0 
          0 0 0 
          0 0 0 
          0 0 0 
          0 0 0 
          0 0 0 
          0 0 0 
          0 0 0 
          0 0 0 
          0 0 0 
          0 0 0 
          0 0 0 
          0 0 0 
          0 0 0 
          0 0 0 
          0 0 0 
          0 0 0 
          0 0 0 
          0 0 0 
          0 0 0 
          0 0 0 
          0 0 0 
          0 0 0 
          0 0 0 
          0 0 0 
          0 0 0 
          0 0 0 
          0 0 0 
          0 0 0 
          0 0 0 
          0 0 0 
          0 0 0 
          0 0 0 
          0 0 0 
          0 0 0 
          0 0 0 
          0 0 0 
          0 0 0 
          0 0 0 
          0 0 0 
          0 0 0 
          0 0 0 
          0 0 0 
          0 0 0 
          0 0 0 
          0 0 0 
          0 0 0 
          0 0 0 
          0 0 0 
          0 0 0 
          0 0 0 
          0 0 0 
          0 0 0 
          0 0 0 
          0 0 0 
          0 0 0 
          0 0 0 
          0 0 0 
          0 0 0 
          0 0 0 
          0 0 0 
          0 0 0 
          0 0 0 
          0 0 0 
          0 0 0 
          0 0 0 
          0 0 0 
          0 0 0 
          0 0 0 
          0 0 0 
          0 0 0 
          0 0 0 
          0 0 0 
          0 0 0 
          0 0 0 
          0 0 0 
          0 0 0 
          0 0 0 
          0 0 0 
          0 0 0 
          0 0 0 
          0 0 0 
          0 0 0 
          0 0 0 
          0 0 0 
          0 0 0 
          0 0 0 
          0 0 0 
          0 0 0 
          0 0 0 
          0 0 0 
          0 0 0 
          0 0 0 
          0 0 0 
          0 0 0 
          0 0 0 
          0 0 0 
          0 0 0 
          0 0 0 
          0 0 0 
          0 0 0 
          0 0 0 
          0 0 0 
          0 0 0 
          0 0 0 
          0 0 0 
          0 0 0 
          0 0 0 
          0 0 0 
          0 0 0 
          0 0 0 
          0 0 0 
          0 0 0 
          0 0 0 
          0 0 0 
          0 0 0 
          0 0 0 
          0 0 0 
          0 0 0 
          0 0 0 
          0 0 0 
          0 0 0 
          0 0 0 
          0 0 0 
          0 0 0 
          0 0 0 
          0 0 0 
          0 0 0 
          0 0 0 
          0 0 0 
          0 0 0 
          0 0 0 
          0 0 0 
          0 0 0 
          0 0 0 
          0 0 0 
          0 0 0 
          0 0 0 
          0 0 0 
          0 0 0 
          0 0 0 
          0 0 0 
          0 0 0 
          0 0 0 
          0 0 0 
          0 0 0 
          0 0 0 
          0 0 0 
          0 0 0 
          0 0 0 
          0 0 0 
          0 0 0 
          0 0 0 
          0 0 0 
          0 0 0 
          0 0 0 
          0 0 0 
          0 0 0 
          0 0 0 
          0 0 0 
          0 0 0 
          0 0 0 
          0 0 0 
          0 0 0 
          0 0 0 
          0 0 0 
          0 0 0 
          0 0 0 
          0 0 0 
          0 0 0 
          0 0 0 
          0 0 0 
          0 0 0 
          0 0 0 
          0 0 0 
          0 0 0 
          0 0 0 
          0 0 0 
          0 0 0 
          0 0 0 
          0 0 0 
          0 0 0 
          0 0 0 
          0 0 0 
          0 0 0 
          0 0 0 
          0 0 0 
          0 0 0 
          0 0 0 
          0 0 0 
          0 0 0 
          0 0 0 
          0 0 0 
          0 0 0 
          0 0 0 
          0 0 0 
          0 0 0 
          0 0 0 
          0 0 0 
          0 0 0 
          0 0 0 
          0 0 0 
          0 0 0 
          0 0 0 
          0 0 0 
          0 0 0 
          0 0 0 
          0 0 0 
          0 0 0 
          0 0 0 
          0 0 0 
          0 0 0 
          0 0 0 
          0 0 0 
          0 0 0 
          0 0 0 
          0 0 0 
          0 0 0 
          0 0 0 
          0 0 0 
          0 0 0 
          0 0 0 
          0 0 0 
          0 0 0 
          0 0 0 
          0 0 0 
          0 0 0 
          0 0 0 
          0 0 0 
          0 0 0 
          0 0 0 
          0 0 0 
          0 0 0 
          0 0 0 
          0 0 0 
          0 0 0 
          0 0 0 
          0 0 0 
          0 0 0 
          0 0 0 
          0 0 0 
          0 0 0 
          0 0 0 
          0 0 0 
          0 0 0 
          0 0 0 
          0 0 0 
          0 0 0 
          0 0 0 
          0 0 0 
          0 0 0 
          0 0 0 
          0 0 0 
          0 0 0 
          0 0 0 
          0 0 0 
          0 0 0 
          0 0 0 
          0 0 0 
          0 0 0 
          0 0 0 
          0 0 0 
          0 0 0 
          0 0 0 
          0 0 0 
          0 0 0 
          0 0 0 
          0 0 0 
          0 0 0 
          0 0 0 
          0 0 0 
          0 0 0 
          0 0 0 
          0 0 0 
          0 0 0 
          0 0 0 
          0 0 0 
          0 0 0 
          0 0 0 
          0 0 0 
          0 0 0 
          0 0 0 
          0 0 0 
          0 0 0 
          0 0 0 
          0 0 0 
          0 0 0 
          0 0 0 
          0 0 0 
          0 0 0 
          0 0 0 
          0 0 0 
          0 0 0 
          0 0 0 
          0 0 0 
          0 0 0 
          0 0 0 
          0 0 0 
          0 0 0 
          0 0 0 
          0 0 0 
          0 0 0 
          0 0 0 
          0 0 0 
          0 0 0 
          0 0 0 
          0 0 0 
          0 0 0 
          0 0 0 
          0 0 0 
          0 0 0 
          0 0 0 
          0 0 0 
          0 0 0 
          0 0 0 
          0 0 0 
          0 0 0 
          0 0 0 
          0 0 0 
          0 0 0 
          0 0 0 
          0 0 0 
          0 0 0 
          0 0 0 
          0 0 0 
          0 0 0 
          0 0 0 
          0 0 0 
          0 0 0 
          0 0 0 
          0 0 0 
          0 0 0 
          0 0 0 
          0 0 0 
          0 0 0 
          0 0 0 
          0 0 0 
          0 0 0 
          0 0 0 
          0 0 0 
          0 0 0 
          0 0 0 
          0 0 0 
          0 0 0 
          0 0 0 
          0 0 0 
          0 0 0 
          0 0 0 
          0 0 0 
          0 0 0 
          0 0 0 
          0 0 0 
          0 0 0 
          0 0 0 
          0 0 0 
          0 0 0 
          0 0 0 
          0 0 0 
          0 0 0 
          0 0 0 
          0 0 0 
          0 0 0 
          0 0 0 
          0 0 0 
          0 0 0 
          0 0 0 
          0 0 0 
          0 0 0 
          0 0 0 
          0 0 0 
          0 0 0 
          0 0 0 
          0 0 0 
          0 0 0 
          0 0 0 
          0 0 0 
          0 0 0 
          0 0 0 
          0 0 0 
          0 0 0 
          0 0 0 
          0 0 0 
          0 0 0 
          0 0 0 
          0 0 0 
          0 0 0 
          0 0 0 
          0 0 0 
          0 0 0 
          0 0 0 
          0 0 0 
          0 0 0 
          0 0 0 
          0 0 0 
          0 0 0 
          0 0 0 
          0 0 0 
          0 0 0 
          0 0 0 
          0 0 0 
          0 0 0 
          0 0 0 
          0 0 0 
          0 0 0 
          0 0 0 
          0 0 0 
          0 0 0 
          0 0 0 
          0 0 0 
          0 0 0 
          0 0 0 
          0 0 0 
          0 0 0 
          0 0 0 
          0 0 0 
          0 0 0 
          0 0 0 
          0 0 0 
          0 0 0 
          0 0 0 
          0 0 0 
          0 0 0 
          0 0 0 
          0 0 0 
          0 0 0 
          0 0 0 
          0 0 0 
          0 0 0 
          0 0 0 
          0 0 0 
          0 0 0 
          0 0 0 
          0 0 0 
          0 0 0 
          0 0 0 
          0 0 0 
          0 0 0 
          0 0 0 
          0 0 0 
          0 0 0 
          0 0 0 
          0 0 0 
          0 0 0 
          0 0 0 
          0 0 0 
          0 0 0 
          0 0 0 
          0 0 0 
          0 0 0 
          0 0 0 
          0 0 0 
          0 0 0 
          0 0 0 
          0 0 0 
          0 0 0 
          0 0 0 
          0 0 0 
          0 0 0 
          0 0 0 
          0 0 0 
          0 0 0 
          0 0 0 
          0 0 0 
          0 0 0 
          0 0 0 
          0 0 0 
          0 0 0 
          0 0 0 
          0 0 0 
          0 0 0 
          0 0 0 
          0 0 0 
          0 0 0 
          0 0 0 
          0 0 0 
          0 0 0 
          0 0 0 
          0 0 0 
          0 0 0 
          0 0 0 
          0 0 0 
          0 0 0 
          0 0 0 
          0 0 0 
          0 0 0 
          0 0 0 
          0 0 0 
          0 0 0 
          0 0 0 
          0 0 0 
          0 0 0 
          0 0 0 
          0 0 0 
          0 0 0 
          0 0 0 
          0 0 0 
          0 0 0 
          0 0 0 
          0 0 0 
          0 0 0 
          0 0 0 
          0 0 0 
          0 0 0 
          0 0 0 
          0 0 0 
          0 0 0 
          0 0 0 
          0 0 0 
          0 0 0 
          0 0 0 
          0 0 0 
          0 0 0 
          0 0 0 
          0 0 0 
          0 0 0 
          0 0 0 
          0 0 0 
          0 0 0 
          0 0 0 
          0 0 0 
          0 0 0 
          0 0 0 
          0 0 0 
          0 0 0 
          0 0 0 
          0 0 0 
          0 0 0 
          0 0 0 
          0 0 0 
          0 0 0 
          0 0 0 
          0 0 0 
          0 0 0 
          0 0 0 
          0 0 0 
          0 0 0 
          0 0 0 
          0 0 0 
          0 0 0 
          0 0 0 
          0 0 0 
          0 0 0 
          0 0 0 
          0 0 0 
          0 0 0 
          0 0 0 
          0 0 0 
          0 0 0 
          0 0 0 
          0 0 0 
          0 0 0 
          0 0 0 
          0 0 0 
          0 0 0 
          0 0 0 
          0 0 0 
          0 0 0 
          0 0 0 
          0 0 0 
          0 0 0 
          0 0 0 
          0 0 0 
          0 0 0 
          0 0 0 
          0 0 0 
          0 0 0 
          0 0 0 
          0 0 0 
          0 0 0 
          0 0 0 
          0 0 0 
          0 0 0 
          0 0 0 
          0 0 0 
          0 0 0 
          0 0 0 
          0 0 0 
          0 0 0 
          0 0 0 
          0 0 0 
          0 0 0 
          0 0 0 
          0 0 0 
          0 0 0 
          0 0 0 
          0 0 0 
          0 0 0 
          0 0 0 
          0 0 0 
          0 0 0 
          0 0 0 
          0 0 0 
          0 0 0 
          0 0 0 
          0 0 0 
          0 0 0 
          0 0 0 
          0 0 0 
          0 0 0 
          0 0 0 
          0 0 0 
          0 0 0 
          0 0 0 
          0 0 0 
          0 0 0 
          0 0 0 
          0 0 0 
          0 0 0 
          0 0 0 
          0 0 0 
          0 0 0 
          0 0 0 
          0 0 0 
          0 0 0 
          0 0 0 
          0 0 0 
          0 0 0 
          0 0 0 
          0 0 0 
          0 0 0 
          0 0 0 
          0 0 0 
          0 0 0 
          0 0 0 
          0 0 0 
          0 0 0 
          0 0 0 
          0 0 0 
          0 0 0 
          0 0 0 
          0 0 0 
          0 0 0 
          0 0 0 
          0 0 0 
          0 0 0 
          0 0 0 
          0 0 0 
          0 0 0 
          0 0 0 
          0 0 0 
          0 0 0 
          0 0 0 
          0 0 0 
          0 0 0 
          0 0 0 
          0 0 0 
          0 0 0 
          0 0 0 
          0 0 0 
          0 0 0 
          0 0 0 
          0 0 0 
          0 0 0 
          0 0 0 
          0 0 0 
          0 0 0 
          0 0 0 
          0 0 0 
          0 0 0 
          0 0 0 
          0 0 0 
          0 0 0 
          0 0 0 
          0 0 0 
          0 0 0 
          0 0 0 
          0 0 0 
          0 0 0 
          0 0 0 
          0 0 0 
          0 0 0 
          0 0 0 
          0 0 0 
          0 0 0 
          0 0 0 
          0 0 0 
          0 0 0 
          0 0 0 
          0 0 0 
          0 0 0 
          0 0 0 
          0 0 0 
          0 0 0 
          0 0 0 
          0 0 0 
          0 0 0 
          0 0 0 
          0 0 0 
          0 0 0 
          0 0 0 
          0 0 0 
          0 0 0 
          0 0 0 
          0 0 0 
          0 0 0 
          0 0 0 
          0 0 0 
          0 0 0 
          0 0 0 
          0 0 0 
          0 0 0 
          0 0 0 
          0 0 0 
          0 0 0 
          0 0 0 
          0 0 0 
          0 0 0 
          0 0 0 
          0 0 0 
          0 0 0 
          0 0 0 
          0 0 0 
          0 0 0 
          0 0 0 
          0 0 0 
          0 0 0 
          0 0 0 
          0 0 0 
          0 0 0 
          0 0 0 
          0 0 0 
          0 0 0 
          0 0 0 
          0 0 0 
          0 0 0 
          0 0 0 
          0 0 0 
          0 0 0 
          0 0 0 
          0 0 0 
          0 0 0 
          0 0 0 
          0 0 0 
          0 0 0 
          0 0 0 
          0 0 0 
          0 0 0 
          0 0 0 
          0 0 0 
          0 0 0 
          0 0 0 
          0 0 0 
          0 0 0 
          0 0 0 
          0 0 0 
          0 0 0 
          0 0 0 
          0 0 0 
          0 0 0 
          0 0 0 
          0 0 0 
          0 0 0 
          0 0 0 
          0 0 0 
          0 0 0 
          0 0 0 
          0 0 0 
          0 0 0 
          0 0 0 
          0 0 0 
          0 0 0 
          0 0 0 
          0 0 0 
          0 0 0 
          0 0 0 
          0 0 0 
          0 0 0 
          0 0 0 
          0 0 0 
          0 0 0 
          0 0 0 
          0 0 0 
          0 0 0 
          0 0 0 
          0 0 0 
          0 0 0 
          0 0 0 
          0 0 0 
          0 0 0 
          0 0 0 
          0 0 0 
          0 0 0 
          0 0 0 
          0 0 0 
          0 0 0 
          0 0 0 
          0 0 0 
          0 0 0 
          0 0 0 
          0 0 0 
          0 0 0 
          0 0 0 
          0 0 0 
          0 0 0 
          0 0 0 
          0 0 0 
          0 0 0 
          0 0 0 
          0 0 0 
          0 0 0 
          0 0 0 
          0 0 0 
          0 0 0 
          0 0 0 
          0 0 0 
          0 0 0 
          0 0 0 
          0 0 0 
          0 0 0 
          0 0 0 
          0 0 0 
          0 0 0 
          0 0 0 
          0 0 0 
          0 0 0 
          0 0 0 
          0 0 0 
          0 0 0 
          0 0 0 
          0 0 0 
          0 0 0 
          0 0 0 
          0 0 0 
          0 0 0 
          0 0 0 
          0 0 0 
          0 0 0 
          0 0 0 
          0 0 0 
          0 0 0 
          0 0 0 
          0 0 0 
          0 0 0 
          0 0 0 
          0 0 0 
          0 0 0 
          0 0 0 
          0 0 0 
          0 0 0 
          0 0 0 
          0 0 0 
          0 0 0 
          0 0 0 
          0 0 0 
          0 0 0 
          0 0 0 
          0 0 0 
          0 0 0 
          0 0 0 
          0 0 0 
          0 0 0 
          0 0 0 
          0 0 0 
          0 0 0 
          0 0 0 
          0 0 0 
          0 0 0 
          0 0 0 
          0 0 0 
          0 0 0 
          0 0 0 
          0 0 0 
          0 0 0 
          0 0 0 
          0 0 0 
          0 0 0 
          0 0 0 
          0 0 0 
          0 0 0 
          0 0 0 
          0 0 0 
          0 0 0 
          0 0 0 
          0 0 0 
          0 0 0 
          0 0 0 
          0 0 0 
          0 0 0 
          0 0 0 
          0 0 0 
          0 0 0 
          0 0 0 
          0 0 0 
          0 0 0 
          0 0 0 
          0 0 0 
          0 0 0 
          0 0 0 
          0 0 0 
          0 0 0 
          0 0 0 
          0 0 0 
          0 0 0 
          0 0 0 
          0 0 0 
          0 0 0 
          0 0 0 
          0 0 0 
          0 0 0 
          0 0 0 
          0 0 0 
          0 0 0 
          0 0 0 
          0 0 0 
          0 0 0 
          0 0 0 
          0 0 0 
          0 0 0 
          0 0 0 
          0 0 0 
          0 0 0 
          0 0 0 
          0 0 0 
          0 0 0 
          0 0 0 
          0 0 0 
          0 0 0 
          0 0 0 
          0 0 0 
          0 0 0 
          0 0 0 
          0 0 0 
          0 0 0 
          0 0 0 
          0 0 0 
          0 0 0 
          0 0 0 
          0 0 0 
          0 0 0 
          0 0 0 
          0 0 0 
        </DataArray>
        <DataArray type="Float64" Name="id" NumberOfComponents="1" Format="ascii">
          39 
          41 
          289 
          425 
          456 
          608 
          707 
          719 
          815 
          889 
          987 
          12 
          30 
          281 
          338 
          351 
          365 
          578 
          592 
          622 
          637 
          709 
          790 
          813 
          894 
          945 
          950 
          952 
          58 
          107 
          122 
          187 
          233 
          242 
          249 
          290 
          324 
          333 
          393 
          441 
          515 
          522 
          548 
          659 
          705 
          712 
          733 
          829 
          886 
          933 
          295 
          339 
          392 
          446 
          503 
          734 
          756 
          766 
          773 
          852 
          877 
          938 
          26 
          123 
          134 
          152 
          232 
          251 
          389 
          449 
          498 
          545 
          549 
          574 
          583 
          746 
          748 
          758 
          908 
          81 
          135 
          138 
          182 
          229 
          322 
          371 
          375 
          428 
          466 
          484 
          516 
          526 
          544 
          722 
          800 
          810 
          823 
          907 
          955 
          983 
          142 
          171 
          189 
          191 
          202 
          256 
          317 
          344 
          413 
          590 
          625 
          661 
          753 
          760 
          803 
          913 
          7 
          83 
          151 
          166 
          184 
          193 
          247 
          279 
          287 
          352 
          486 
          614 
          765 
          820 
          910 
          928 
          11 
          56 
          112 
          116 
          119 
          173 
          185 
          194 
          382 
          501 
          628 
          651 
          700 
          759 
          792 
          822 
          844 
          915 
          993 
          13 
          25 
          36 
          120 
          294 
          313 
          386 
          497 
          570 
          582 
          591 
          715 
          761 
          785 
          787 
          833 
          918 
          932 
          949 
          0 
          9 
          90 
          153 
          158 
          245 
          253 
          301 
          378 
          462 
          535 
          646 
          727 
          743 
          768 
          832 