<?xml version="1.0"?>
<VTKFile type="UnstructuredGrid" version="0.1" byte_order="LittleEndian">
  <UnstructuredGrid>
    <Piece NumberOfPoints="1000" NumberOfCells="1000">
      <Points>
        <DataArray name="Position" type="Float64" NumberOfComponents="3" Format="ascii">
          0.000324412 0.00399149 0.0
          0.0630759 0.0564789 0.0
          0.220438 0.0841409 0.0
          0.170064 0.0775096 0.0
          0.0660203 0.0455043 0.0
          0.244764 0.0101592 0.0
          0.0722686 0.0339995 0.0
          0.122194 0.0820941 0.0
          0.102032 0.0892657 0.0
          0.0693581 0.00987826 0.0
          0.211589 0.0561495 0.0
          0.144452 0.0581065 0.0
          0.00227393 0.0926434 0.0
          0.0457694 0.0789478 0.0
          0.177385 0.0189978 0.0
          0.154017 0.114035 0.0
          0.0621539 0.122908 0.0
          0.428287 0.0742568 0.0
          0.492527 0.089802 0.0
          0.395808 0.00196704 0.0
          0.439089 0.0991482 0.0
          0.392891 0.057159 0.0
          0.444244 0.0999258 0.0
          0.364959 0.0102815 0.0
          0.4509 0.0313858 0.0
          0.31827 0.00810272 0.0
          0.482598 0.0959594 0.0
          0.394805 0.0554142 0.0
          0.449639 0.0875423 0.0
          0.489078 0.00174195 0.0
          0.481095 0.0894762 0.0
          0.361109 0.0842159 0.0
          0.452888 0.0150596 0.0
          0.361937 0.0876871 0.0
          0.314433 0.0628427 0.0
          0.302238 0.101962 0.0
          0.3023 0.0259132 0.0
          0.284976 0.0713371 0.0
          0.264631 0.0370949 0.0
          0.262371 0.0975736 0.0
          0.257867 0.105482 0.0
          0.260098 0.10692 0.0
          0.293184 0.124432 0.0
          0.0720953 0.147051 0.0
          0.161489 0.169097 0.0
          0.243685 0.144269 0.0
          0.025433 0.165969 0.0
          0.00986293 0.138246 0.0
          0.204546 0.134397 0.0
          0.118271 0.177355 0.0
          0.24351 0.133591 0.0
          0.0497873 0.128332 0.0
          0.019553 0.193322 0.0
          0.00262276 0.20503 0.0
          0.0744599 0.207019 0.0
          0.179843 0.216042 0.0
          0.0342758 0.232343 0.0
          0.186451 0.235307 0.0
          0.194202 0.233416 0.0
          0.155114 0.241976 0.0
          0.0418413 0.248559 0.0
          0.351833 0.163272 0.0
          0.480133 0.21044 0.0
          0.321999 0.201434 0.0
          0.385251 0.127334 0.0
          0.360974 0.203084 0.0
          0.308943 0.127322 0.0
          0.297992 0.131544 0.0
          0.30095 0.180657 0.0
          0.339718 0.219866 0.0
          0.285365 0.167092 0.0
          0.381192 0.227907 0.0
          0.278804 0.225473 0.0
          0.275104 0.178063 0.0
          0.282954 0.237378 0.0
          0.257489 0.142005 0.0
          0.662714 0.0517739 0.0
          0.742011 0.0281546 0.0
          0.62758 0.00380617 0.0
          0.664324 0.0311179 0.0
          0.689509 0.0476939 0.0
          0.733411 0.0176348 0.0
          0.602831 0.0730087 0.0
          0.701259 0.116648 0.0
          0.581902 0.0800872 0.0
          0.581694 0.0070198 0.0
          0.583519 0.112165 0.0
          0.584008 0.0945179 0.0
          0.579562 0.00752173 0.0
          0.571441 0.0224152 0.0
          0.535109 0.11847 0.0
          0.531235 0.0644722 0.0
          0.526322 0.114977 0.0
          0.503367 0.0863782 0.0
          0.944361 0.0774258 0.0
          0.872743 0.0162446 0.0
          0.972411 0.00285309 0.0
          0.934498 0.0556416 0.0
          0.917992 0.0474567 0.0
          0.966706 0.0776441 0.0
          0.937595 0.0114161 0.0
          0.965181 0.0521159 0.0
          0.827859 0.100774 0.0
          0.822228 0.092932 0.0
          0.821929 0.059544 0.0
          0.819004 0.100502 0.0
          0.816023 0.104657 0.0
          0.7973 0.0259122 0.0
          0.788125 0.0592278 0.0
          0.783263 0.0358681 0.0
          0.772316 0.0745738 0.0
          0.717172 0.241704 0.0
          0.745946 0.23857 0.0
          0.615133 0.228749 0.0
          0.609939 0.188325 0.0
          0.741105 0.204206 0.0
          0.667551 0.209715 0.0
          0.663867 0.160639 0.0
          0.664445 0.210036 0.0
          0.706853 0.226465 0.0
          0.723559 0.242503 0.0
          0.583914 0.132337 0.0
          0.545306 0.244569 0.0
          0.51677 0.246216 0.0
          0.532909 0.245336 0.0
          0.506018 0.197057 0.0
          0.90799 0.175405 0.0
          0.947847 0.180546 0.0
          0.918949 0.168256 0.0
          0.835358 0.137536 0.0
          0.934252 0.135499 0.0
          0.922611 0.136119 0.0
          0.802114 0.211686 0.0
          0.808126 0.144533 0.0
          0.785185 0.168284 0.0
          0.993849 0.129552 0.0
          0.779387 0.131937 0.0
          0.7665 0.138117 0.0
          0.890926 0.125326 0.0
          0.160373 0.280785 0.0
          0.172379 0.304253 0.0
          0.225145 0.324552 0.0
          0.135132 0.341065 0.0
          0.0440382 0.340098 0.0
          0.126027 0.371545 0.0
          0.339528 0.282411 0.0
          0.477335 0.311834 0.0
          0.385137 0.310598 0.0
          0.426761 0.316089 0.0
          0.351646 0.299705 0.0
          0.316981 0.295466 0.0
          0.397944 0.33016 0.0
          0.369913 0.331759 0.0
          0.412842 0.34057 0.0
          0.497653 0.363416 0.0
          0.499459 0.3658 0.0
          0.281222 0.357906 0.0
          0.495258 0.368735 0.0
          0.254695 0.250048 0.0
          0.255015 0.312048 0.0
          0.262457 0.371882 0.0
          0.0402863 0.381469 0.0
          0.133028 0.400624 0.0
          0.0548734 0.389342 0.0
          0.166469 0.40129 0.0
          0.230092 0.420854 0.0
          0.0945805 0.424119 0.0
          0.197344 0.433557 0.0
          0.0683657 0.435082 0.0
          0.0981553 0.461283 0.0
          0.177451 0.476628 0.0
          0.155422 0.475462 0.0
          0.0630623 0.491263 0.0
          0.44258 0.44263 0.0
          0.385156 0.376669 0.0
          0.319572 0.416266 0.0
          0.4964 0.399655 0.0
          0.402786 0.437097 0.0
          0.389669 0.444052 0.0
          0.449593 0.471233 0.0
          0.387242 0.458857 0.0
          0.278979 0.388155 0.0
          0.296136 0.454128 0.0
          0.365776 0.48883 0.0
          0.29865 0.492004 0.0
          0.260893 0.492656 0.0
          0.693667 0.351277 0.0
          0.660865 0.312509 0.0
          0.72726 0.335196 0.0
          0.622932 0.362785 0.0
          0.667553 0.298082 0.0
          0.611529 0.317743 0.0
          0.613866 0.293286 0.0
          0.688197 0.334427 0.0
          0.631639 0.290194 0.0
          0.576952 0.277584 0.0
          0.523933 0.312748 0.0
          0.578396 0.370096 0.0
          0.839955 0.308444 0.0
          0.872867 0.337152 0.0
          0.867236 0.307322 0.0
          0.997246 0.315309 0.0
          0.880542 0.308837 0.0
          0.854488 0.356243 0.0
          0.920379 0.370408 0.0
          0.9796 0.300888 0.0
          0.865845 0.304468 0.0
          0.982406 0.299471 0.0
          0.887955 0.362637 0.0
          0.866234 0.282076 0.0
          0.914629 0.284051 0.0
          0.906457 0.278405 0.0
          0.974606 0.282438 0.0
          0.812888 0.353214 0.0
          0.839856 0.265271 0.0
          0.796558 0.316268 0.0
          0.789669 0.266181 0.0
          0.806558 0.251359 0.0
          0.774127 0.297917 0.0
          0.778506 0.268621 0.0
          0.780804 0.268739 0.0
          0.756692 0.324487 0.0
          0.712991 0.484151 0.0
          0.748982 0.430556 0.0
          0.672649 0.476431 0.0
          0.595901 0.437879 0.0
          0.676439 0.475093 0.0
          0.688119 0.41271 0.0
          0.731758 0.457708 0.0
          0.6763 0.405503 0.0
          0.612964 0.405722 0.0
          0.597289 0.41949 0.0
          0.622962 0.421669 0.0
          0.642791 0.490628 0.0
          0.633516 0.463951 0.0
          0.731974 0.406028 0.0
          0.567655 0.435465 0.0
          0.554127 0.387605 0.0
          0.515474 0.384742 0.0
          0.94571 0.454771 0.0
          0.917427 0.452871 0.0
          0.923178 0.455406 0.0
          0.876131 0.466159 0.0
          0.861715 0.457785 0.0
          0.952458 0.431493 0.0
          0.912461 0.431213 0.0
          0.91421 0.412874 0.0
          0.933712 0.417069 0.0
          0.972952 0.409748 0.0
          0.942729 0.399508 0.0
          0.991307 0.384883 0.0
          1.2465 0.00258932 0.0
          1.21479 0.016699 0.0
          1.22998 0.033035 0.0
          1.21452 0.0197299 0.0
          1.14854 0.0779312 0.0
          1.2437 0.00147102 0.0
          1.08432 0.123913 0.0
          1.18969 0.0959902 0.0
          1.15141 0.0981535 0.0
          1.17964 0.0202126 0.0
          1.0451 0.0162853 0.0
          1.03075 0.0488743 0.0
          1.01122 0.0685823 0.0
          1.01121 0.0970978 0.0
          1.26886 0.102839 0.0
          1.41976 0.0664215 0.0
          1.44268 0.0676242 0.0
          1.37604 0.028447 0.0
          1.33898 0.0313801 0.0
          1.32989 0.118434 0.0
          1.44467 0.0880628 0.0
          1.27738 0.0850288 0.0
          1.4096 0.0821394 0.0
          1.31454 0.0547178 0.0
          1.4836 0.0202146 0.0
          1.48401 0.00524296 0.0
          1.48944 0.0953352 0.0
          1.26498 0.0940755 0.0
          1.26076 0.0228376 0.0
          1.26275 0.0370042 0.0
          1.18516 0.200915 0.0
          1.17433 0.236232 0.0
          1.07438 0.191688 0.0
          1.22771 0.18793 0.0
          1.0664 0.189734 0.0
          1.22261 0.158272 0.0
          1.23923 0.161491 0.0
          1.1134 0.168002 0.0
          1.21695 0.15466 0.0
          1.06417 0.149537 0.0
          1.1108 0.135219 0.0
          1.10409 0.135258 0.0
          1.02873 0.152602 0.0
          1.12604 0.134 0.0
          1.1871 0.132278 0.0
          1.04091 0.130655 0.0
          1.24631 0.128152 0.0
          1.16236 0.12809 0.0
          1.45225 0.192981 0.0
          1.29081 0.194668 0.0
          1.44274 0.14541 0.0
          1.46291 0.15009 0.0
[...]
      <PointData Scalars="scalars">
        <DataArray type="Float64" Name="velocity" NumberOfComponents="3" Format="ascii">
          0.000295094 -0.0037391 0 
          0.0559817 -0.0520188 0 
          0.183642 -0.0671942 0 
          0.14465 -0.0659832 0 
          0.058581 -0.0418847 0 
          0.203426 -0.00787031 0 
          0.0640234 -0.0312294 0 
          0.105788 -0.0729721 0 
          0.0889194 -0.0804296 0 
          0.0615565 -0.00909692 0 
          0.177589 -0.0455213 0 
          0.124371 -0.0507925 0 
          0.00205559 -0.0864135 0 
          0.0407881 -0.0730779 0 
          0.151246 -0.0161161 0 
          0.130973 -0.0984138 0 
          0.054686 -0.112846 0 
          0.314861 -0.0374613 0 
          0.341433 -0.0360508 0 
          0.300703 -0.00110379 0 
          0.317927 -0.0481155 0 
          0.297824 -0.0320227 0 
          0.320206 -0.0476816 0 
          0.283456 -0.00623511 0 
          0.327599 -0.0148543 0 
          0.254838 -0.00546321 0 
          0.336921 -0.0400002 0 
          0.298929 -0.0308945 0 
          0.323768 -0.0411381 0 
          0.344441 -0.000722788 0 
          0.336964 -0.0375676 0 
          0.278664 -0.0509515 0 
          0.328863 -0.00710312 0 
          0.27892 -0.0529148 0 
          0.251184 -0.0423977 0 
          0.24132 -0.0701855 0 
          0.244171 -0.0180141 0 
          0.231217 -0.0510286 0 
          0.217836 -0.0276824 0 
          0.214277 -0.0726198 0 
          0.210677 -0.0790867 0 
          0.212202 -0.0798249 0 
          0.233909 -0.0869877 0 
          0.0628737 -0.134179 0 
          0.134912 -0.143966 0 
          0.198177 -0.110347 0 
          0.0224956 -0.153558 0 
          0.00882866 -0.128545 0 
          0.169598 -0.109228 0 
          0.100368 -0.156787 0 
          0.198694 -0.102376 0 
          0.0439702 -0.11833 0 
          0.0172133 -0.178542 0 
          0.00231766 -0.189529 0 
          0.0637526 -0.187355 0 
          0.146256 -0.178673 0 
          0.029608 -0.212845 0 
          0.149709 -0.19223 0 
          0.155497 -0.188836 0 
          0.126039 -0.204734 0 
          0.0357962 -0.226689 0 
          0.266177 -0.0994294 0 
          0.316336 -0.0847951 0 
          0.244015 -0.12984 0 
          0.288484 -0.0719208 0 
          0.265457 -0.119204 0 
          0.243942 -0.0861302 0 
          0.236558 -0.0909712 0 
          0.233869 -0.122729 0 
          0.251239 -0.135073 0 
          0.225276 -0.117643 0 
          0.271143 -0.125512 0 
          0.214479 -0.158129 0 
          0.217451 -0.127582 0 
          0.21546 -0.164415 0 
          0.208312 -0.10605 0 
          0.389625 -0.00724726 0 
          0.397263 -0.000635134 0 
          0.385644 -0.000745247 0 
          0.391068 -0.00430767 0 
          0.393094 -0.00476685 0 
          0.397395 -0.000624632 0 
          0.376845 -0.0167794 0 
          0.385773 -0.00935488 0 
          0.371078 -0.0209455 0 
          0.375165 -0.001873 0 
          0.367416 -0.0288008 0 
          0.36995 -0.0243172 0 
          0.374598 -0.00203176 0 
          0.372119 -0.00631682 0 
          0.352865 -0.0392276 0 
          0.357586 -0.0220307 0 
          0.350529 -0.039684 0 
          0.345866 -0.0331864 0 
          0.368699 0.0203537 0 
          0.388172 0.00270067 0 
          0.364586 0.000866958 0 
          0.373241 0.0139286 0 
          0.377817 0.0108235 0 
          0.362376 0.0227466 0 
          0.374454 0.00292598 0 
          0.365028 0.0152166 0 
          0.386872 0.0102103 0 
          0.388532 0.00868483 0 
          0.392333 0.00556183 0 
          0.387728 0.00892681 0 
          0.387342 0.00885122 0 
          0.396289 0.00151151 0 
          0.39465 0.00266049 0 
          0.396499 0.00135939 0 
          0.393625 0.00164752 0 
          0.351307 -0.0122129 0 
          0.353216 -0.00279562 0 
          0.345528 -0.0446968 0 
          0.357237 -0.0393382 0 
          0.365659 -0.00401531 0 
          0.35931 -0.0256966 0 
          0.372946 -0.0212862 0 
          0.358859 -0.0266599 0 
          0.35666 -0.0148978 0 
          0.351221 -0.0101334 0 
          0.364257 -0.0337021 0 
          0.325585 -0.0721285 0 
          0.317599 -0.083038 0 
          0.322208 -0.0768482 0 
          0.32832 -0.0718811 0 
          0.359691 0.0367229 0 
          0.349418 0.0473734 0 
          0.359229 0.0377938 0 
          0.379621 0.0153209 0 
          0.362796 0.0334856 0 
          0.365411 0.0314934 0 
          0.36198 0.0135513 0 
          0.380501 0.0105802 0 
          0.375933 0.0068874 0 
          0.34685 0.0423603 0 
          0.384541 0.00429994 0 
          0.383545 0.00197495 0 
          0.373905 0.0236248 0 
          0.127112 -0.23413 0 
          0.133488 -0.248429 0 
          0.165859 -0.243106 0 
          0.103984 -0.287066 0 
          0.035923 -0.304633 0 
          0.095015 -0.312563 0 
          0.238879 -0.168667 0 
          0.282549 -0.118037 0 
          0.251828 -0.161116 0 
          0.265456 -0.14344 0 
          0.240412 -0.171749 0 
          0.224384 -0.184994 0 
          0.250141 -0.162293 0 
          0.238794 -0.176828 0 
          0.2514 -0.158286 0 
          0.262441 -0.119207 0 
          0.261458 -0.118656 0 
          0.191001 -0.23448 0 
          0.259105 -0.121477 0 
          0.195849 -0.182577 0 
          0.186549 -0.222062 0 
          0.17813 -0.252083 0 
          0.0320418 -0.338866 0 
          0.0968593 -0.331147 0 
          0.0429275 -0.342961 0 
          0.117777 -0.31847 0 
          0.149278 -0.296506 0 
          0.0693206 -0.360116 0 
          0.129457 -0.322449 0 
          0.0506972 -0.374923 0 
          0.0684517 -0.384677 0 
          0.109944 -0.356767 0 
          0.0992045 -0.368509 0 
          0.0439388 -0.415852 0 
          0.205071 -0.16355 0 
          0.227605 -0.184644 0 
          0.188715 -0.236668 0 
          0.240957 -0.125662 0 
          0.201724 -0.188329 0 
          0.194863 -0.198026 0 
          0.185035 -0.161175 0 
          0.185398 -0.201919 0 
          0.181828 -0.250533 0 
          0.1649 -0.264331 0 
          0.162621 -0.220738 0 
          0.147847 -0.272059 0 
          0.13798 -0.302362 0 
          0.292598 -0.0247494 0 
          0.314041 -0.0370073 0 
          0.304018 -0.0102054 0 
          0.280071 -0.0573134 0 
          0.322357 -0.0333106 0 
          0.305838 -0.0583791 0 
          0.318738 -0.0545116 0 
          0.303096 -0.0266147 0 
          0.3226 -0.0469766 0 
          0.31984 -0.0670223 0 
          0.293265 -0.0963339 0 
          0.270551 -0.0792995 0 
          0.317141 0.0339552 0 
          0.297799 0.050103 0 
          0.315235 0.0445189 0 
          0.288795 0.0975747 0 
          0.312927 0.0499181 0 
          0.287416 0.0440983 0 
          0.271822 0.0748736 0 
          0.299558 0.0871209 0 
          0.31689 0.0436536 0 
          0.299543 0.0878651 0 
          0.280392 0.05939 0 
          0.328006 0.0411707 0 
          0.320223 0.0591936 0 
          0.324123 0.0552565 0 
          0.308755 0.0808235 0 
          0.291693 0.0259874 0 
          0.33838 0.0299086 0 
          0.315112 0.017365 0 
          0.34104 0.0124676 0 
          0.346718 0.0174256 0 
          0.325754 0.00794772 0 
          0.340215 0.00864352 0 
          0.340114 0.00945748 0 
          0.310757 0.00171444 0 
          0.177103 -0.0152873 0 
          0.231537 0.000180084 0 
          0.185156 -0.0349032 0 
          0.220612 -0.0743768 0 
          0.186619 -0.0330766 0 
          0.246472 -0.028146 0 
          0.20523 -0.00716265 0 
          0.252082 -0.0337071 0 
          0.24845 -0.0646424 0 
          0.236322 -0.0731553 0 
          0.236061 -0.0601136 0 
          0.169575 -0.0494063 0 
          0.197434 -0.0548462 0 
          0.252961 -0.00789136 0 
          0.221097 -0.0893072 0 
          0.256163 -0.0932727 0 
          0.252936 -0.113032 0 
          0.205811 0.0964226 0 
          0.208776 0.0816694 0 
          0.206265 0.0847775 0 
          0.197349 0.0613574 0 
          0.205701 0.0538981 0 
          0.224726 0.0978282 0 
          0.227803 0.0776474 0 
          0.242446 0.0769157 0 
          0.237584 0.0869038 0 
          0.238912 0.105466 0 
          0.249643 0.0892437 0 
          0.252626 0.110253 0 
          0.233968 0.00151587 0 
          0.253087 0.00943178 0 
          0.243591 0.0189945 0 
          0.253193 0.0111392 0 
          0.286827 0.039705 0 
          0.235712 0.000858724 0 
          0.312568 0.0547162 0 
          0.263027 0.0522885 0 
          0.283471 0.0502144 0 
          0.273114 0.0108763 0 
          0.337957 0.0065018 0 
          0.342466 0.0185446 0 
          0.348503 0.0241766 0 
          0.34555 0.0341057 0 
          0.214396 0.061459 0 
          0.123654 0.0390017 0 
          0.109947 0.0387139 0 
          0.152022 0.0171903 0 
          0.174754 0.0191534 0 
          0.173703 0.0725732 0 
          0.106939 0.0503604 0 
          0.210568 0.0511003 0 
          0.12845 0.0487267 0 
          0.189029 0.0333729 0 
          0.0885907 0.0108256 0 
          0.0885911 0.00280233 0 
          0.079927 0.0507765 0 
          0.217766 0.0560482 0 
          0.224654 0.0135511 0 
          0.222942 0.0219942 0 
          0.249653 0.10802 0 
          0.247472 0.124202 0 
          0.30451 0.08154 0 
          0.227918 0.107504 0 
          0.308202 0.0789421 0 
          0.236051 0.0900523 0 
          0.225508 0.0937607 0 
          0.292245 0.0791445 0 
          0.23996 0.087366 0 
          0.317169 0.0623252 0 
          0.298907 0.0635846 0 
          0.302021 0.0626341 0 
          0.330512 0.0567701 0 
          0.291809 0.0651279 0 
          0.26025 0.0716967 0 
          0.32964 0.0508264 0 
          0.22591 0.0750106 0 
          0.274205 0.0667117 0 
          0.0855674 0.110369 0 
          0.186703 0.118303 0 
          0.100401 0.0837032 0 
          0.0875098 0.0840484 0 
          0.167194 0.108162 0 
          0.12753 0.109973 0 
          0.118447 0.0927074 0 
          0.126269 0.130078 0 
          0.0565086 0.135464 0 
          0.143525 0.0858777 0 
          0.199626 0.0820365 0 
          0.212458 0.0870971 0 
          0.201944 0.0764457 0 
          0.215134 0.107608 0 
          0.210129 0.111907 0 
          0.0440378 0.0331573 0 
          0.0161635 0.0203007 0 
          0.0291556 0.0410794 0 
          0.00701219 0.0124712 0 
          0.00562661 0.0135948 0 
          0.0482218 0.0290959 0 
          0.0695032 0.0170501 0 
          0.0568001 0.055415 0 
          0.0362199 0.0259652 0 
          -0.00735662 0.0244933 0 
          -0.00767644 0.0242712 0 
          -0.0113129 0.000302709 0 
          -0.0131883 -0.000841322 0 
          -0.0105228 -0.00812057 0 
          -0.0137896 0.00161906 0 
          -0.00970701 0.00131329 0 
          -0.010628 0.00110633 0 
          -0.015238 -0.000676869 0 
          -0.000951927 -0.00139701 0 
          -0.0121923 -0.000788701 0 
          -0.0142915 0.00346543 0 
          -0.00460909 -0.00796803 0 
          -0.0129933 -0.000846878 0 
          -0.00774744 -0.0054506 0 
          -0.0119344 0.00999423 0 
          -0.00897162 0.00438865 0 
          -0.0021894 -0.00239817 0 
          -0.0113588 -0.0106317 0 
          -0.00772318 -0.0135033 0 
          0.0188539 0.10022 0 
          -0.00383193 0.0988721 0 
          0.0100868 0.0550616 0 
          0.0313881 0.0941093 0 
          0.0111776 0.0854023 0 
          -0.0278776 0.0445378 0 
          0.0397324 0.0617431 0 
          -0.00452303 0.0973273 0 
          -0.0195313 0.0295385 0 
          -0.0189124 0.0832895 0 
          -0.0352125 0.0441975 0 
          -0.0299612 0.060084 0 
          -0.0174809 0.0189236 0 
          -0.00736389 -0.0181545 0 
          -0.00555786 -0.0212184 0 
          -0.00583516 -0.0163582 0 
          -0.0151368 -0.0104457 0 
          -0.023096 -0.012116 0 
          -0.0154074 -0.0140519 0 
          -0.0284701 0.00324518 0 
          -0.017182 0.0122822 0 
          -0.0339775 0.00540814 0 
          -0.0232164 -0.00915636 0 
          -0.0282566 -0.0106674 0 
          -0.0285604 -0.0233572 0 
          -0.0372163 -0.0106449 0 
          -0.0212938 -0.0351003 0 
          -0.0210986 -0.0343684 0 
          -0.0151104 -0.0387513 0 
          -0.0253489 -0.032519 0 
          0.247869 0.147469 0 
          0.243817 0.150949 0 
          0.226112 0.16824 0 
          0.199331 0.193372 0 
          0.245001 0.150255 0 
          0.239354 0.155663 0 
          0.279038 0.113716 0 
          0.235793 0.147055 0 
          0.293855 0.101564 0 
          0.233629 0.145372 0 
          0.267268 0.12445 0 
          0.283508 0.108723 0 
          0.288953 0.105218 0 
          0.276453 0.116838 0 
          0.301335 0.093386 0 
          0.275392 0.114902 0 
          0.20151 0.14861 0 
          0.105163 0.199268 0 
          0.0750955 0.168918 0 
          0.0739864 0.170732 0 
          0.0770454 0.185907 0 
          0.0548985 0.214406 0 
          0.049278 0.187832 0 
          0.110404 0.203059 0 
          0.0969432 0.195313 0 
          0.0348259 0.194979 0 
          0.0419932 0.162681 0 
          0.0699175 0.159653 0 
          0.16553 0.168006 0 
          0.170025 0.199165 0 
          0.170748 0.204833 0 
          0.180721 0.160558 0 
          0.186051 0.154366 0 
          0.144468 0.234926 0 
          0.143913 0.248958 0 
          0.126116 0.264714 0 
          0.131583 0.26327 0 
          0.208461 0.156907 0 
          0.175598 0.218232 0 
          0.158069 0.233813 0 
          0.159474 0.232057 0 
          0.166566 0.138746 0 
          0.220048 0.168456 0 
          0.196986 0.196913 0 
          0.192603 0.132918 0 
          0.245187 0.136586 0 
          0.164009 0.219683 0 
          0.100275 0.287956 0 
          0.0371736 0.299549 0 
          0.0847561 0.286051 0 
          0.112018 0.284094 0 
          0.0465138 0.313129 0 
          0.0346829 0.310423 0 
          0.0230287 0.257903 0 
          0.115903 0.280064 0 
          -0.00501575 0.275801 0 
          0.0435396 0.265254 0 
          -0.0302417 0.279646 0 
          -0.0239112 0.253724 0 
          -0.016901 0.242588 0 
          0.0718316 0.249518 0 
          0.134812 0.258439 0 
          0.127962 0.234309 0 
          0.01044 0.212906 0 
          0.114506 0.281787 0 
          0.0100987 0.141673 0 
          -0.0207219 0.0940828 0 
          -0.0371219 0.0663075 0 
          -0.0561358 0.104321 0 
          -0.0631734 0.0853625 0 
          -0.0113961 0.132581 0 
          0.0264309 0.154643 0 
          0.00578724 0.173455 0 
          -0.0451488 0.0502154 0 
          0.00435354 0.163143 0 
          -0.0577938 0.08526 0 
          -0.0485537 0.155899 0 
          0.00646991 0.143503 0 
          -0.0462278 0.0435379 0 
          -0.0593514 0.0497339 0 
          -0.0791125 0.0477997 0 
          -0.0250623 0.0764539 0 
          -0.0633483 0.0117156 0 
          -0.00389033 -0.0440169 0 
          -0.0587794 -0.00555473 0 
          -0.0526508 -0.0250427 0 
          -0.0460237 0.00187445 0 
          -0.0471749 -0.0344301 0 
          -0.0206153 -0.0482818 0 
          -0.0435043 -0.0426312 0 
          -0.037315 -0.0260403 0 
          -0.0575799 -0.00739045 0 
          -0.0457049 -0.0251053 0 
          -0.0201915 -0.0493314 0 
          -0.0655128 -0.0102164 0 
          -0.0322662 -0.0590805 0 
          -0.0681106 0.00188609 0 
          -0.0221947 -0.0702686 0 
          -0.0631281 -0.0472274 0 
          -0.0539036 -0.0690546 0 
          -0.0865825 0.138346 0 
          -0.0401786 0.259682 0 
          -0.0514601 0.271253 0 
          -0.0840412 0.14796 0 
          -0.0346637 0.250833 0 
          -0.0547738 0.241055 0 
          -0.0554984 0.25524 0 
          -0.0801829 0.163617 0 
          -0.143422 0.0448037 0 
          -0.0199902 0.197136 0 
          -0.0506065 0.159157 0 
          -0.0229042 -0.101498 0 
          -0.0726086 -0.0724735 0 
          -0.0287255 -0.0953234 0 
          -0.0808223 -0.0709014 0 
          -0.108842 -0.0172597 0 
          -0.0247447 -0.0984863 0 
          -0.0968772 0.0101323 0 
          -0.0992087 -0.0455897 0 
          -0.11155 -0.0356209 0 
          -0.089978 -0.0825484 0 
          -0.123469 -0.0183449 0 
          -0.0564641 -0.122517 0 
          -0.0379659 -0.132411 0 
          -0.0739423 -0.129596 0 
          -0.027363 -0.167301 0 
          -0.0622153 -0.154943 0 
          -0.105453 -0.108357 0 
          -0.101743 -0.118862 0 
          0.125992 -0.322433 0 
          0.127838 -0.32219 0 
          0.112802 -0.346014 0 
          0.0921962 -0.389001 0 
          0.0314358 -0.442033 0 
          0.0107083 -0.455169 0 
          0.0903812 -0.348644 0 
          0.0611873 -0.437182 0 
          0.0531442 -0.446447 0 
          0.075637 -0.373423 0 
          0.0707115 -0.402892 0 
          0.0641795 -0.432186 0 
          0.0722122 -0.397272 0 
          0.0730752 -0.39469 0 
          0.034558 -0.48178 0 
          0.0628767 -0.394946 0 
          0.0486644 -0.46668 0 
          0.149104 -0.195523 0 
          0.135663 -0.267319 0 
          0.118061 -0.224584 0 
          0.12374 -0.170046 0 
          0.0848072 -0.123163 0 
          0.141778 -0.167243 0 
          0.148642 -0.239714 0 
          0.0685587 -0.150897 0 
          0.150555 -0.242798 0 
          0.083205 -0.133685 0 
          0.117 -0.133747 0 
          0.0535127 -0.120173 0 
          0.0684956 -0.164 0 
          0.0402831 -0.122123 0 
          0.0916986 -0.242699 0 
          0.038651 -0.130895 0 
          0.11709 -0.310059 0 
          0.0319598 -0.130325 0 
          0.0526019 -0.178523 0 
          0.0844597 -0.324222 0 
          0.0452848 -0.231234 0 
          0.0453985 -0.430891 0 
          -0.00240166 -0.338277 0 
          -0.0104115 -0.315099 0 
          0.0253782 -0.474328 0 
          0.00999535 -0.538732 0 
          0.0277648 -0.450755 0 
          0.00126188 -0.392129 0 
          0.0204899 -0.4753 0 
          -0.0344663 -0.338501 0 
          0.0113844 -0.467177 0 
          0.0134298 -0.494891 0 
          0.0221317 -0.181696 0 
          -0.038917 -0.17145 0 
          -0.0494176 -0.130263 0 
          -0.00915731 -0.211188 0 
          0.0195647 -0.189273 0 
          -0.0304019 -0.168918 0 
          0.00966854 -0.212002 0 
          -0.0498393 -0.202245 0 
          -0.0705276 -0.130142 0 
          -0.0418029 -0.152762 0 
          -0.013127 -0.12943 0 
          0.0410956 -0.239101 0 
          -0.0276776 -0.166111 0 
          -0.0309313 -0.157998 0 
          0.0135526 -0.159079 0 
          -0.0666777 -0.186717 0 
          -0.00785997 -0.217504 0 
          -0.0466299 -0.216632 0 
          0.00352001 -0.291388 0 
          -0.13759 -0.130529 0 
          -0.139405 -0.0930036 0 
          -0.0240662 -0.267019 0 
          -0.164385 -0.115665 0 
          -0.188129 -0.101032 0 
          -0.120449 -0.188495 0 
          0.0510348 -0.0931189 0 
          0.058137 -0.0283262 0 
          0.0301348 -0.0381293 0 
          0.0373183 -0.0335955 0 
          0.11414 -0.0526308 0 
          0.151688 -0.0678618 0 
          0.0225903 -0.0821188 0 
          0.00563627 -0.0458067 0 
          0.1569 -0.0641275 0 
          0.0200828 0.00241326 0 
          0.0711971 -0.0103583 0 
          0.130964 -0.0158885 0 
          0.145481 -0.0524058 0 
          0.0680177 -0.03942 0 
          0.0473815 -0.108311 0 
          0.016654 0.0477163 0 
          0.0774971 0.0561232 0 
          0.0248208 0.0366945 0 
          0.0711178 0.089562 0 
          0.0936972 0.100028 0 
          0.115369 0.045447 0 
          0.123196 0.106405 0 
          0.10578 0.0131029 0 
          0.0367705 0.00683343 0 
          0.110611 0.0107014 0 
          -0.174459 -0.0442695 0 
          -0.171015 -0.0119677 0 
          -0.0597626 -0.0341444 0 
          -0.243713 -0.0425033 0 
          -0.103721 -0.019066 0 
          -0.0709966 -0.0893621 0 