<?xml version="1.0"?>
<VTKFile type="UnstructuredGrid" version="0.1" byte_order="LittleEndian">
  <UnstructuredGrid>
    <Piece NumberOfPoints="1000" NumberOfCells="1000">
      <Points>
        <DataArray name="Position" type="Float64" NumberOfComponents="3" Format="ascii">
          0.24813 0.0367263 0.0
          0.212677 0.063939 0.0
          0.13867 0.0229619 0.0
          0.0884903 0.0285641 0.0
          0.122504 0.038538 0.0
          0.110267 0.0428258 0.0
          0.21356 0.0570975 0.0
          0.0978605 0.0611922 0.0
          0.240184 0.0568464 0.0
          0.0877303 0.0752722 0.0
          0.247618 0.080472 0.0
          0.109987 0.0761207 0.0
          0.142245 0.0807187 0.0
          0.163741 0.0890701 0.0
          0.0681382 0.0889161 0.0
          0.235573 0.103866 0.0
          0.14246 0.105284 0.0
          0.173357 0.107674 0.0
          0.00287059 0.107896 0.0
          0.193083 0.110036 0.0
          0.0836329 0.115363 0.0
          0.0710151 0.116795 0.0
          0.463641 0.0341059 0.0
          0.423098 0.0541495 0.0
          0.42807 0.00264169 0.0
          0.408002 0.0115978 0.0
          0.43371 0.0879967 0.0
          0.364255 0.0306163 0.0
          0.311421 0.0965715 0.0
          0.41866 0.10677 0.0
          0.37681 0.113371 0.0
          0.316083 0.111273 0.0
          0.305234 0.1183 0.0
          0.018564 0.131083 0.0
          0.183635 0.131115 0.0
          0.123956 0.135519 0.0
          0.198366 0.131764 0.0
          0.118633 0.152929 0.0
          0.197876 0.164754 0.0
          0.224641 0.180078 0.0
          0.231605 0.188323 0.0
          0.0978285 0.187594 0.0
          0.0836075 0.190357 0.0
          0.0194139 0.188478 0.0
          0.157752 0.192204 0.0
          0.13947 0.205803 0.0
          0.239695 0.210572 0.0
          0.198162 0.211702 0.0
          0.0310653 0.209271 0.0
          0.0353927 0.213636 0.0
          0.173442 0.231198 0.0
          0.115523 0.241263 0.0
          0.248596 0.245 0.0
          0.453618 0.171028 0.0
          0.451488 0.179091 0.0
          0.380765 0.171702 0.0
          0.447657 0.200185 0.0
          0.344213 0.129066 0.0
          0.422152 0.199473 0.0
          0.308326 0.200604 0.0
          0.360056 0.210955 0.0
          0.346984 0.211977 0.0
          0.423955 0.221671 0.0
          0.434849 0.227269 0.0
          0.472583 0.237773 0.0
          0.28622 0.234053 0.0
          0.256857 0.166667 0.0
          0.725185 0.0858311 0.0
          0.724484 0.0171002 0.0
          0.725439 0.0185478 0.0
          0.701454 0.0633872 0.0
          0.669722 0.0667532 0.0
          0.671792 0.0170032 0.0
          0.658897 0.0768508 0.0
          0.641217 0.00512769 0.0
          0.630929 0.0842105 0.0
          0.598428 0.0198976 0.0
          0.604913 0.000221803 0.0
          0.572757 0.048621 0.0
          0.569934 0.0420481 0.0
          0.539573 0.0239341 0.0
          0.528692 0.0718154 0.0
          0.531172 0.0991471 0.0
          0.559738 0.120827 0.0
          0.999203 0.0700835 0.0
          0.985442 0.105853 0.0
          0.932083 0.0145423 0.0
          0.924857 0.0803724 0.0
          0.924469 0.0118076 0.0
          0.905722 0.0547817 0.0
          0.893366 0.116959 0.0
          0.887808 0.0576381 0.0
          0.857902 0.108246 0.0
          0.820059 0.0301546 0.0
          0.819301 0.0857931 0.0
          0.809857 0.0550986 0.0
          0.796495 0.100747 0.0
          0.797988 0.111065 0.0
          0.797882 0.106226 0.0
          0.783686 0.0780842 0.0
          0.76671 0.0479832 0.0
          0.816606 0.124218 0.0
          0.744849 0.227432 0.0
          0.747497 0.179436 0.0
          0.726921 0.159261 0.0
          0.677577 0.194312 0.0
          0.664001 0.175679 0.0
          0.627874 0.197497 0.0
          0.597824 0.173796 0.0
          0.56889 0.224667 0.0
          0.577598 0.23451 0.0
          0.553526 0.144362 0.0
          0.5491 0.201674 0.0
          0.54347 0.157166 0.0
          0.50105 0.190854 0.0
          0.509621 0.216019 0.0
          0.981766 0.227649 0.0
          0.994485 0.207581 0.0
          0.955214 0.199375 0.0
          0.955888 0.135974 0.0
          0.918643 0.14943 0.0
          0.898798 0.169546 0.0
          0.876115 0.198859 0.0
          0.867417 0.152767 0.0
          0.847059 0.206463 0.0
          0.898971 0.249087 0.0
          0.774514 0.131812 0.0
          0.762342 0.225075 0.0
          0.766749 0.227963 0.0
          0.751843 0.136065 0.0
          0.757803 0.24807 0.0
          0.192305 0.258656 0.0
          0.17996 0.256453 0.0
          0.173678 0.273735 0.0
          0.0443506 0.270116 0.0
          0.161262 0.285991 0.0
          0.00126607 0.284537 0.0
          0.101128 0.287249 0.0
          0.0734874 0.298747 0.0
          0.118233 0.303059 0.0
          0.202661 0.3148 0.0
          0.162241 0.316732 0.0
          0.117385 0.317506 0.0
          0.0732171 0.32024 0.0
          0.183317 0.333006 0.0
          0.0974267 0.345072 0.0
          0.117375 0.342863 0.0
          0.131822 0.370091 0.0
          0.44448 0.257387 0.0
          0.334116 0.25161 0.0
          0.403233 0.302124 0.0
          0.388439 0.306651 0.0
          0.389472 0.311016 0.0
          0.314074 0.282643 0.0
          0.495314 0.332007 0.0
          0.300065 0.251455 0.0
          0.297055 0.279473 0.0
          0.489399 0.34609 0.0
          0.447141 0.346374 0.0
          0.275912 0.289811 0.0
          0.263485 0.26683 0.0
          0.258812 0.361398 0.0
          0.372069 0.367404 0.0
          0.246918 0.384115 0.0
          0.101253 0.375383 0.0
          0.23411 0.392767 0.0
          0.248598 0.40222 0.0
          0.213755 0.390936 0.0
          0.146057 0.384985 0.0
          0.106665 0.382485 0.0
          0.0477403 0.39231 0.0
          0.242878 0.417672 0.0
          0.0399729 0.394689 0.0
          0.124072 0.411456 0.0
          0.162547 0.423578 0.0
          0.146593 0.447644 0.0
          0.205841 0.460318 0.0
          0.0190949 0.458366 0.0
          0.221221 0.47807 0.0
          0.0853395 0.474165 0.0
          0.179456 0.485357 0.0
          0.0720474 0.478208 0.0
          0.0416185 0.482022 0.0
          0.14998 0.490642 0.0
          0.495001 0.375301 0.0
          0.359277 0.385607 0.0
          0.440723 0.405702 0.0
          0.396958 0.414253 0.0
          0.413988 0.426231 0.0
          0.350204 0.408231 0.0
          0.383941 0.432181 0.0
          0.296908 0.391402 0.0
          0.303823 0.433288 0.0
          0.45556 0.463758 0.0
          0.271257 0.426353 0.0
          0.264745 0.455818 0.0
          0.345789 0.485102 0.0
          0.485597 0.495405 0.0
          0.29839 0.496111 0.0
          0.698884 0.280505 0.0
          0.731519 0.284778 0.0
          0.740868 0.301493 0.0
          0.722739 0.272894 0.0
          0.694968 0.32677 0.0
          0.66206 0.294135 0.0
          0.67634 0.258921 0.0
          0.673792 0.278781 0.0
          0.661322 0.294743 0.0
          0.663566 0.254527 0.0
          0.65049 0.262464 0.0
          0.61985 0.277974 0.0
          0.584344 0.338948 0.0
          0.622818 0.350655 0.0
          0.557434 0.345385 0.0
          0.553286 0.289748 0.0
          0.536781 0.334161 0.0
          0.53363 0.327727 0.0
          0.524135 0.299914 0.0
          0.653162 0.368946 0.0
          0.508352 0.346833 0.0
          0.552253 0.372635 0.0
          0.93877 0.305412 0.0
          0.960787 0.374899 0.0
          0.955186 0.324923 0.0
          0.978525 0.286265 0.0
          0.909949 0.352809 0.0
          0.883129 0.253711 0.0
          0.848888 0.330438 0.0
          0.851224 0.340094 0.0
          0.847028 0.28623 0.0
          0.81592 0.347792 0.0
          0.794601 0.297138 0.0
          0.776403 0.269265 0.0
          0.775819 0.256752 0.0
          0.764199 0.335277 0.0
          0.667847 0.382636 0.0
          0.712379 0.433805 0.0
          0.65137 0.409655 0.0
          0.631201 0.455705 0.0
          0.650897 0.441997 0.0
          0.734884 0.409024 0.0
          0.698012 0.459849 0.0
          0.590691 0.419729 0.0
          0.583219 0.39433 0.0
          0.537722 0.463743 0.0
          0.515309 0.412653 0.0
          0.544439 0.495847 0.0
          0.925186 0.486776 0.0
          0.901252 0.475906 0.0
          0.934373 0.424972 0.0
          0.884315 0.436715 0.0
          0.886881 0.419832 0.0
          0.867471 0.468773 0.0
          0.979959 0.41789 0.0
          0.829977 0.488512 0.0
          0.830312 0.433925 0.0
          0.83203 0.412706 0.0
          0.834695 0.377755 0.0
          0.955097 0.378417 0.0
          0.787772 0.4534 0.0
          1.21376 0.083976 0.0
          1.23908 0.0833442 0.0
          1.18858 0.0247628 0.0
          1.19613 0.105394 0.0
          1.22822 0.0267048 0.0
          1.18478 0.0959559 0.0
          1.20025 0.0316261 0.0
          1.21604 0.0432767 0.0
          1.16808 0.0858616 0.0
          1.14597 0.0373042 0.0
          1.12984 0.065621 0.0
          1.12071 0.0352676 0.0
          1.10559 0.00258118 0.0
          1.0713 0.0290755 0.0
          1.07235 0.087663 0.0
          1.06213 0.0475228 0.0
          1.04627 0.113143 0.0
          1.02685 0.119562 0.0
          1.0023 0.0684088 0.0
          1.01105 0.107828 0.0
          1.01103 0.0570637 0.0
          1.43426 0.0408585 0.0
          1.3683 0.076961 0.0
          1.4227 0.019711 0.0
          1.49631 0.0203435 0.0
          1.49371 0.0198681 0.0
          1.35557 0.00971756 0.0
          1.29039 0.0763415 0.0
          1.26681 0.0232296 0.0
          1.27079 0.0754007 0.0
          1.25844 0.115958 0.0
          1.22604 0.185891 0.0
          1.22792 0.247918 0.0
          1.24072 0.154456 0.0
          1.14834 0.153392 0.0
          1.14143 0.175434 0.0
          1.1446 0.156701 0.0
          1.15117 0.138374 0.0
          1.15691 0.137253 0.0
          1.09435 0.169888 0.0
          1.14152 0.130428 0.0
          1.07075 0.216442 0.0
          1.07182 0.193373 0.0
          1.02952 0.130535 0.0
[...]
      <PointData Scalars="scalars">
        <DataArray type="Float64" Name="velocity" NumberOfComponents="3" Format="ascii">
          0.210321 -0.0292691 0 
          0.181965 -0.0533353 0 
          0.122224 -0.0207005 0 
          0.0793056 -0.0265688 0 
          0.108467 -0.0351105 0 
          0.0980053 -0.0393158 0 
          0.182842 -0.0476096 0 
          0.0871857 -0.056513 0 
          0.203694 -0.0457292 0 
          0.0782887 -0.0698222 0 
          0.208589 -0.0638441 0 
          0.0973874 -0.0697281 0 
          0.124447 -0.0722359 0 
          0.141948 -0.0781794 0 
          0.0610893 -0.0831381 0 
          0.198259 -0.0836529 0 
          0.124027 -0.0940194 0 
          0.149156 -0.0934797 0 
          0.00262366 -0.102354 0 
          0.164829 -0.0935202 0 
          0.0741999 -0.106941 0 
          0.0632696 -0.108881 0 
          0.346459 -0.0175945 0 
          0.324372 -0.0307666 0 
          0.328659 -0.00149993 0 
          0.317459 -0.00688377 0 
          0.327342 -0.0483732 0 
          0.291078 -0.019872 0 
          0.253495 -0.0685951 0 
          0.317366 -0.0606021 0 
          0.293205 -0.0705834 0 
          0.255496 -0.0781799 0 
          0.247661 -0.0846918 0 
          0.0167991 -0.123941 0 
          0.156406 -0.112366 0 
          0.107835 -0.122424 0 
          0.167976 -0.111054 0 
          0.102881 -0.138377 0 
          0.165649 -0.138185 0 
          0.184765 -0.145387 0 
          0.189176 -0.150216 0 
          0.0845074 -0.171142 0 
          0.0725633 -0.174948 0 
          0.0172967 -0.177067 0 
          0.132701 -0.167373 0 
          0.117504 -0.181692 0 
          0.192759 -0.164894 0 
          0.162251 -0.175653 0 
          0.0273514 -0.195576 0 
          0.0310545 -0.199316 0 
          0.142059 -0.196499 0 
          0.0966434 -0.215537 0 
          0.194704 -0.187055 0 
          0.324319 -0.0870509 0 
          0.321578 -0.0913003 0 
          0.287475 -0.104183 0 
          0.314834 -0.101924 0 
          0.27188 -0.0856591 0 
          0.303245 -0.10847 0 
          0.240127 -0.139546 0 
          0.268804 -0.1316 0 
          0.261289 -0.135883 0 
          0.298622 -0.118534 0 
          0.302 -0.117791 0 
          0.314263 -0.110318 0 
          0.220981 -0.167606 0 
          0.209731 -0.128505 0 
          0.429118 -0.0168342 0 
          0.436216 -0.00345437 0 
          0.43635 -0.0037267 0 
          0.427725 -0.0140835 0 
          0.419873 -0.0170685 0 
          0.424377 -0.00438476 0 
          0.41572 -0.020489 0 
          0.416312 -0.00150359 0 
          0.406909 -0.0250311 0 
          0.402627 -0.00680402 0 
          0.405109 -7.45704e-05 0 
          0.392045 -0.0179956 0 
          0.391503 -0.0157403 0 
          0.380806 -0.00992617 0 
          0.372995 -0.0303888 0 
          0.370504 -0.0413108 0 
          0.377503 -0.0456683 0 
          0.451214 0.00284722 0 
          0.444472 0.0031535 0 
          0.457574 -0.00019876 0 
          0.450277 -0.0015116 0 
          0.457522 -0.000237146 0 
          0.453718 -0.00192614 0 
          0.440988 -0.00514639 0 
          0.45257 -0.00289555 0 
          0.441176 -0.00802252 0 
          0.449854 -0.00333162 0 
          0.44263 -0.00931625 0 
          0.44636 -0.00652887 0 
          0.436955 -0.0129026 0 
          0.434742 -0.0140122 0 
          0.435882 -0.0134403 0 
          0.439714 -0.0110016 0 
          0.44134 -0.00759468 0 
          0.433396 -0.0135468 0 
          0.384979 -0.0364156 0 
          0.406637 -0.0296373 0 
          0.410826 -0.0298672 0 
          0.388997 -0.0449047 0 
          0.393004 -0.0437198 0 
          0.376638 -0.0559924 0 
          0.376635 -0.0561249 0 
          0.350501 -0.0773681 0 
          0.348978 -0.0777093 0 
          0.370351 -0.0551853 0 
          0.352761 -0.0755448 0 
          0.363739 -0.0616663 0 
          0.339308 -0.0838365 0 
          0.334845 -0.0908185 0 
          0.396836 0.00609411 0 
          0.406905 0.00749033 0 
          0.411594 0.00141668 0 
          0.436599 0.000930305 0 
          0.431841 -0.00335642 0 
          0.423782 -0.00638481 0 
          0.410167 -0.010783 0 
          0.428578 -0.00979864 0 
          0.404914 -0.0159023 0 
          0.384306 -0.00832518 0 
          0.4263 -0.0192205 0 
          0.388124 -0.0326391 0 
          0.387153 -0.0321099 0 
          0.421935 -0.0226253 0 
          0.375522 -0.0360429 0 
          0.153435 -0.213554 0 
          0.144685 -0.215032 0 
          0.138425 -0.230025 0 
          0.0377979 -0.249012 0 
          0.12822 -0.242695 0 
          0.00109406 -0.263947 0 
          0.0829387 -0.256542 0 
          0.0607077 -0.270403 0 
          0.0950357 -0.266209 0 
          0.153585 -0.251259 0 
          0.125758 -0.265783 0 
          0.0933728 -0.277922 0 
          0.059631 -0.288349 0 
          0.138134 -0.27081 0 
          0.0767145 -0.304073 0 
          0.0914213 -0.297788 0 
          0.0990786 -0.314417 0 
          0.29692 -0.127534 0 
          0.246024 -0.162672 0 
          0.264786 -0.161094 0 
          0.257063 -0.169041 0 
          0.255943 -0.17039 0 
          0.227972 -0.187344 0 
          0.281139 -0.13139 0 
          0.226474 -0.174145 0 
          0.219115 -0.192073 0 
          0.272059 -0.137308 0 
          0.261083 -0.156803 0 
          0.204616 -0.206478 0 
          0.201241 -0.196754 0 
          0.17887 -0.255486 0 
          0.227139 -0.199733 0 
          0.166831 -0.274238 0 
          0.077402 -0.326758 0 
          0.157788 -0.285933 0 
          0.162895 -0.282524 0 
          0.146978 -0.295562 0 
          0.106887 -0.320463 0 
          0.0806567 -0.330729 0 
          0.0373848 -0.350447 0 
          0.155651 -0.293443 0 
          0.0314217 -0.353406 0 
          0.0895666 -0.346357 0 
          0.111451 -0.339355 0 
          0.0983454 -0.361163 0 
          0.126085 -0.336598 0 
          0.0144005 -0.404723 0 
          0.127478 -0.334245 0 
          0.0587932 -0.401472 0 
          0.107615 -0.364837 0 
          0.0501121 -0.408181 0 
          0.0298295 -0.418216 0 
          0.0925853 -0.384253 0 
          0.255898 -0.140606 0 
          0.214845 -0.212657 0 
          0.226699 -0.173825 0 
          0.211808 -0.199637 0 
          0.208485 -0.192201 0 
          0.201554 -0.22481 0 
          0.198357 -0.210836 0 
          0.18833 -0.24929 0 
          0.174777 -0.260605 0 
          0.187212 -0.171721 0 
          0.165419 -0.279036 0 
          0.152051 -0.294327 0 
          0.15846 -0.243972 0 
          0.1596 -0.153797 0 
          0.143077 -0.280366 0 
          0.349807 -0.0536919 0 
          0.35096 -0.0458361 0 
          0.340702 -0.0449853 0 
          0.357387 -0.0467633 0 
          0.318326 -0.0596155 0 
          0.336183 -0.0655875 0 
          0.35883 -0.0565491 0 
          0.347254 -0.0601668 0 
          0.335693 -0.0658844 0 
          0.358949 -0.0591173 0 
          0.352419 -0.0639361 0 
          0.338199 -0.0754194 0 
          0.294744 -0.0974411 0 
          0.292291 -0.0851131 0 
          0.285905 -0.108629 0 
          0.317279 -0.0991457 0 
          0.288957 -0.114713 0 
          0.292075 -0.114661 0 
          0.304901 -0.111934 0 
          0.281602 -0.0762615 0 
          0.275661 -0.128847 0 
          0.266668 -0.114767 0 
          0.34673 -0.000721974 0 
          0.287071 0.00490475 0 
          0.331377 0.00292789 0 
          0.360509 0.0069609 0 
          0.307331 -0.00681905 0 
          0.381038 -0.0114301 0 
          0.325137 -0.0207034 0 
          0.317177 -0.0203501 0 
          0.35843 -0.0198199 0 
          0.309363 -0.0289944 0 
          0.347799 -0.0319312 0 
          0.364863 -0.0340475 0 
          0.372342 -0.0331098 0 
          0.317137 -0.0412923 0 
          0.271399 -0.0721337 0 
          0.223627 -0.0585277 0 
          0.245958 -0.0789632 0 
          0.198974 -0.0867238 0 
          0.213831 -0.0794554 0 
          0.249801 -0.0516723 0 
          0.194596 -0.0626482 0 
          0.232928 -0.102761 0 
          0.254067 -0.104331 0 
          0.189417 -0.1271 0 
          0.232489 -0.135714 0 
          0.156519 -0.122732 0 
          0.159128 -0.00169171 0 
          0.173334 -0.00756533 0 
          0.234921 -0.000466632 0 
          0.221304 -0.0123481 0 
          0.240411 -0.0119197 0 
          0.182477 -0.0159601 0 
          0.242865 0.00992719 0 
          0.15725 -0.0248489 0 
          0.224229 -0.0259574 0 
          0.24761 -0.0256781 0 
          0.2829 -0.024902 0 
          0.28369 0.00367948 0 
          0.201522 -0.0367741 0 
          0.421724 0.0182911 0 
          0.416056 0.020028 0 
          0.433599 0.00492404 0 
          0.42123 0.0212128 0 
          0.424826 0.00624677 0 
          0.425407 0.0184154 0 
          0.430793 0.00660216 0 
          0.426468 0.00961116 0 
          0.430408 0.015285 0 
          0.440549 0.00601642 0 
          0.439909 0.00960622 0 
          0.444555 0.00493372 0 
          0.44794 0.000331378 0 
          0.450921 0.00287612 0 
          0.443158 0.00860955 0 
          0.450203 0.0043211 0 
          0.439569 0.00869423 0 
          0.439102 0.00735917 0 
          0.451345 0.0029448 0 
          0.442953 0.00533491 0 
          0.452549 0.00284922 0 
          0.355265 0.0173082 0 
          0.378193 0.0277493 0 
          0.361199 0.00817106 0 
          0.327265 0.00978834 0 
          0.32857 0.00951377 0 
          0.3877 0.00343437 0 
          0.403658 0.0219885 0 
          0.41522 0.00625368 0 
          0.409244 0.0203323 0 
          0.404974 0.029655 0 
          0.391158 0.0410553 0 
          0.362953 0.0531055 0 
          0.398923 0.0366268 0 
          0.416361 0.0242359 0 
          0.409413 0.026423 0 
          0.415791 0.0242365 0 
          0.420671 0.0223223 0 
          0.420104 0.0228118 0 
          0.417192 0.0191928 0 
          0.424426 0.0200397 0 
          0.398636 0.0198746 0 
          0.409494 0.0181724 0 
          0.435823 0.00828797 0 
          0.306979 0.0947487 0 
          0.313705 0.0785292 0 
          0.347012 0.0717783 0 
          0.325447 0.0884628 0 
          0.31109 0.0757926 0 
          0.328616 0.0639563 0 
          0.353137 0.0533202 0 
          0.364807 0.0601751 0 
          0.361199 0.0496262 0 
          0.373675 0.0537315 0 
          0.376948 0.0510842 0 
          0.380945 0.0480425 0 
          0.385795 0.0453818 0 
          0.364504 0.0559867 0 
          0.184971 0.0312002 0 
          0.218935 0.00780686 0 
          0.277681 0.0317109 0 
          0.268958 0.0473043 0 
          0.28453 0.0349402 0 
          0.284442 0.0582266 0 
          0.295331 0.0127821 0 
          0.305811 0.0253413 0 
          0.303704 0.0609427 0 
          0.142897 0.0572772 0 
          0.0296421 0.0359138 0 
          0.123544 0.0286301 0 
          0.0725872 0.0329648 0 
          0.0817619 0.0577274 0 
          0.122629 0.0251484 0 
          0.0872376 0.0140622 0 
          0.00223122 0.0494887 0 
          0.00711504 0.0274725 0 
          0.150189 0.0520634 0 
          0.14213 0.000246471 0 
          0.155119 0.0140952 0 
          0.0304191 0.0294889 0 
          0.0743502 0.0835403 0 
          0.191647 0.10822 0 
          0.23639 0.114685 0 
          0.191658 0.130976 0 
          0.190901 0.144732 0 
          0.264241 0.107361 0 
          0.185713 0.134349 0 
          0.21347 0.0993387 0 
          0.163254 0.128695 0 
          0.277495 0.10102 0 
          0.176509 0.0879905 0 
          0.286489 0.0879894 0 
          0.296225 0.0910958 0 
          0.050215 0.096372 0 
          0.0968439 0.110978 0 
          0.118689 0.11235 0 
          0.11409 0.0952062 0 
          0.0564722 0.13946 0 
          0.00415648 0.119912 0 
          0.134456 0.140304 0 
          0.121449 0.141407 0 
          0.0537775 0.157254 0 
          0.10695 0.159905 0 
          0.0545442 0.158752 0 
          0.0154324 0.0951434 0 
          0.153672 0.115069 0 
          0.290844 0.0727535 0 
          0.283106 0.073092 0 
          0.33548 0.0400059 0 
          0.332358 0.0594842 0 
          0.351433 0.0516464 0 
          0.341825 0.030896 0 
          0.369378 0.0365429 0 
          0.376172 0.0222336 0 
          0.377182 0.0248886 0 
          0.380765 0.0169433 0 
          0.375377 0.0172767 0 
          0.319802 0.0186613 0 
          0.348095 0.0169266 0 
          0.378501 0.0261246 0 
          0.268172 0.111327 0 
          0.258003 0.130376 0 
          0.251747 0.130395 0 
          0.260029 0.136062 0 
          0.286249 0.103487 0 
          0.28744 0.112418 0 
          0.274936 0.12636 0 
          0.313532 0.0922258 0 
          0.316261 0.0919948 0 
          0.327571 0.0831085 0 
          0.310832 0.0980382 0 
          0.300433 0.107133 0 
          0.330462 0.0805711 0 
          0.278157 0.0929276 0 
          0.317271 0.0828277 0 
          0.320411 0.0795025 0 
          0.2943 0.083873 0 
          0.314307 0.0783932 0 
          0.324569 0.0726519 0 
          0.348189 0.0623124 0 
          0.179354 0.0482108 0 
          0.189968 0.0572397 0 
          0.181139 0.0752137 0 
          0.224311 0.0552256 0 
          0.233932 0.0450161 0 
          0.221236 0.0364915 0 
          0.24115 0.0431114 0 
          0.237786 0.0340808 0 
          0.242006 0.0630947 0 
          0.249645 0.0506671 0 
          0.260988 0.048697 0 
          0.246334 0.029864 0 
          0.260413 0.0549715 0 
          0.152265 0.0238223 0 
          0.217361 0.0258712 0 
          0.235767 0.0262899 0 
          0.260274 0.0241423 0 
          0.279323 0.0407699 0 
          0.171638 0.0152314 0 
          0.269273 0.0157514 0 
          0.176147 0.109631 0 
          0.177987 0.159158 0 
          0.190541 0.118973 0 
          0.197632 0.13099 0 
          0.183776 0.1657 0 
          0.212655 0.118015 0 
          0.220737 0.114475 0 
          0.217824 0.13906 0 
          0.204835 0.173693 0 
          0.16777 0.0968758 0 
          0.240598 0.134749 0 
          0.241078 0.137763 0 
          0.265392 0.0897339 0 
          0.232775 0.0869207 0 
          0.234255 0.151074 0 
          0.182543 0.18004 0 
          0.165057 0.191618 0 
          0.186471 0.180256 0 
          0.20224 0.181419 0 
          0.182322 0.177617 0 
          0.162435 0.199361 0 
          0.185362 0.17909 0 
          0.211776 0.167299 0 
          0.242975 0.149884 0 
          0.164729 0.163845 0 
          0.254694 0.142053 0 
          0.237299 0.136226 0 
          0.0835534 0.18419 0 
          0.095878 0.183661 0 
          0.0926863 0.215071 0 
          0.0668579 0.215243 0 
          0.103912 0.184456 0 
          0.0273468 0.196194 0 
          0.0687057 0.194982 0 
          0.0649003 0.219176 0 
          0.0560938 0.22197 0 
          0.0245237 0.226253 0 
          0.00881031 0.226336 0 
          0.0818262 0.173822 0 
          0.103712 0.170819 0 
          0.121387 0.206066 0 
          0.135567 0.179002 0 
          0.0214221 0.169188 0 
          0.062158 0.164857 0 
          0.0337962 0.166355 0 
          0.111494 0.246662 0 
          0.137233 0.223727 0 
          0.116132 0.247534 0 
          0.134785 0.21317 0 
          0.116193 0.247746 0 
          0.118507 0.2467 0 
          0.0968685 0.250538 0 
          0.103419 0.245006 0 
          0.0815522 0.26101 0 
          0.16297 0.213315 0 
          0.177685 0.196212 0 
          0.163214 0.214066 0 
          0.157425 0.203462 0 
          0.160493 0.21617 0 
          0.161797 0.214916 0 
          0.176802 0.203541 0 
          0.181899 0.191056 0 
          0.181093 0.200363 0 
          0.135515 0.222104 0 
          0.199079 0.18639 0 
          0.0550128 0.25298 0 
          0.058788 0.246297 0 
          0.0548609 0.245019 0 
          0.0474044 0.245302 0 
          0.0157919 0.25688 0 
          0.029795 0.267941 0 
          0.0598859 0.242126 0 
          0.0862668 0.238397 0 
          0.0703202 0.238969 0 
          0.0212845 0.239242 0 
          0.0526291 0.238129 0 
          0.0417535 0.235078 0 
          0.100954 0.236815 0 
          0.057299 0.231105 0 
          0.0305405 0.231157 0 
          0.0987873 0.241866 0 
          0.0418338 -0.43489 0 
          0.0449021 -0.464329 0 
          0.0677807 -0.408187 0 
          0.0438836 -0.474892 0 
          0.0239629 -0.501444 0 
          0.141337 -0.242548 0 
          0.109512 -0.210296 0 
          0.130393 -0.294761 0 
          0.118454 -0.263948 0 
          0.10787 -0.231555 0 
          0.10957 -0.248692 0 
          0.0934558 -0.2044 0 
          0.133004 -0.299417 0 
          0.0611899 -0.174878 0 
          0.100975 -0.287702 0 
          0.0895832 -0.292536 0 
          0.0127073 -0.149949 0 
          0.0451462 -0.425135 0 
          0.0159704 -0.367939 0 
          0.0341479 -0.441903 0 
          0.0139248 -0.375203 0 
          0.00247456 -0.419564 0 
          0.0152069 -0.531398 0 
          -0.0264241 -0.360916 0 
          -0.0452756 -0.330494 0 
          0.00413148 -0.457387 0 
          0.00986777 -0.509923 0 
          0.00637042 -0.177112 0 
          -0.0294127 -0.191991 0 
          0.0387258 -0.262315 0 
          -0.120519 -0.11816 0 
          -0.0144963 -0.123653 0 
          -0.1215 -0.104793 0 
          -0.16392 -0.121756 0 
          -0.178017 -0.0923289 0 
          -0.143682 -0.16837 0 
          0.0820189 -0.0629729 0 
          0.0969022 -0.0926874 0 
          0.0173194 -0.0805467 0 
          0.10857 -0.0717414 0 
          0.0910494 -0.0431371 0 
          0.0648788 -0.0705399 0 
          0.014969 -0.0528609 0 
          0.0120758 -0.064022 0 
          0.0384541 -0.0446504 0 
          0.101015 -0.097095 0 
          0.0746665 -0.0833153 0 
          0.0830783 -0.0776134 0 
          0.051417 -0.0854319 0 
          0.117397 -0.097607 0 
          0.0585242 -0.117778 0 
          0.00858762 -0.0828691 0 
          0.00177426 -0.0769536 0 
          -0.000986183 -0.0856003 0 
          -0.0121998 -0.0795727 0 
          -0.0435414 -0.0436101 0 
          0.0919419 -0.135864 0 
          -0.0333011 0.0125207 0 
          -0.00786688 -0.000589887 0 
          -0.0564625 -0.00630164 0 
          0.00595343 -0.0140301 0 
          -0.0150021 0.00869056 0 
          -0.0209431 -0.00127677 0 
          -0.0149738 -0.0112488 0 
          -0.0098983 0.00952564 0 
          0.0120727 0.00601127 0 
          0.0738839 -0.0100697 0 
          0.016598 -0.0341458 0 
          0.0736823 0.00878342 0 
          0.110963 -0.00842763 0 
          0.138946 0.00411235 0 
          -0.148969 -0.0748495 0 
          -0.131296 -0.0763886 0 
          -0.0956829 -0.0765781 0 
          -0.102011 -0.0934985 0 
          -0.0952889 -0.081963 0 
          -0.0779338 -0.067562 0 
          -0.0770911 -0.0379936 0 
          -0.0927394 -0.0359383 0 
          -0.283161 -0.0269474 0 
          -0.120736 -0.0324112 0 
          -0.288074 -0.0364447 0 
          -0.233229 -0.0247362 0 
          -0.102363 -0.0314999 0 
          -0.216852 -0.0217329 0 
          -0.195518 -0.0212867 0 
          -0.296493 -0.00844527 0 
          -0.226201 -0.0222379 0 
          -0.167196 -0.0217364 0 
          -0.205013 -0.00234957 0 
          -0.242138 0.000349293 0 
          -0.190349 -0.00609158 0 
          -0.16894 -0.0103114 0 
          -0.110846 -0.0141213 0 
          -0.101132 -0.0234497 0 
          -0.0611877 -0.0295734 0 
          -0.100747 -0.00567058 0 
          -0.0685539 -0.0190526 0 
          -0.27797 0.00024787 0 
          -0.0852661 0.00809095 0 
          -0.286005 0.00463205 0 
          -0.286861 0.0097105 0 
          -0.0455881 -0.364881 0 
          -0.0352121 -0.396054 0 
          -0.0738791 -0.315788 0 
          -0.106171 -0.286212 0 
          -0.0883215 -0.371476 0 
          0.0015866 -0.564098 0 
          -0.0891348 -0.383252 0 
          -0.109027 -0.266024 0 
          -0.00174925 -0.560625 0 