<?xml version="1.0"?>
<VTKFile type="UnstructuredGrid" version="0.1" byte_order="LittleEndian">
  <UnstructuredGrid>
    <Piece NumberOfPoints="10" NumberOfCells="10">
      <Points>
        <DataArray name="Position" type="Float64" NumberOfComponents="3" Format="ascii">
          1.53961 0.111659 0.0
          1.49029 0.304428 0.0
          0.00554439 0.954719 0.0
          0.229518 0.97796 0.0
          1.69967 0.742946 0.0
          1.17186 0.821153 0.0
          1.33575 0.77865 0.0
          1.55442 0.864221 0.0
          1.98667 0.832858 0.0
          1.99915 0.992781 0.0
        </DataArray>
      </Points>
      <Cells>
        <DataArray type="Int32" Name="connectivity" Format="ascii">
          0
          1
          2
          3
          4
          5
          6
          7
          8
          9
        </DataArray>
        <DataArray type="Int32" Name="offsets" Format="ascii">
          1
          2
          3
          4
          5
          6
          7
          8
          9
          10
        </DataArray>
        <DataArray type="UInt8" Name="types" Format="ascii">
          1
          1
          1
          1
          1
          1
          1
          1
          1
          1
        </DataArray>
      </Cells>
      <PointData Scalars="scalars">
        <DataArray type="Float64" Name="id" NumberOfComponents="1" Format="ascii">
          4
          3
          7
          2
          1
          9
          0
          8
          6
          5
        </DataArray>
      </PointData>
    </Piece>
  </UnstructuredGrid>
</VTKFile>
