<?xml version="1.0"?>
<VTKFile type="UnstructuredGrid" version="0.1" byte_order="LittleEndian">
  <UnstructuredGrid>
    <Piece NumberOfPoints="1000" NumberOfCells="1000">
      <Points>
        <DataArray name="Position" type="Float64" NumberOfComponents="3" Format="ascii">
          0.24813 0.0367263 0.0
          0.212676 0.0639391 0.0
          0.13867 0.022962 0.0
          0.0884901 0.0285642 0.0
          0.122504 0.038538 0.0
          0.110267 0.0428258 0.0
          0.21356 0.0570976 0.0
          0.0978604 0.0611923 0.0
          0.240183 0.0568465 0.0
          0.0877302 0.0752723 0.0
          0.247617 0.080472 0.0
          0.109987 0.0761208 0.0
          0.142245 0.0807189 0.0
          0.163741 0.0890702 0.0
          0.0681382 0.0889163 0.0
          0.235573 0.103866 0.0
          0.14246 0.105285 0.0
          0.173357 0.107674 0.0
          0.00287058 0.107897 0.0
          0.193083 0.110036 0.0
          0.0836328 0.115364 0.0
          0.071015 0.116795 0.0
          0.463641 0.0341059 0.0
          0.423097 0.0541495 0.0
          0.428069 0.00264169 0.0
          0.408002 0.0115978 0.0
          0.43371 0.0879967 0.0
          0.364255 0.0306163 0.0
          0.31142 0.0965716 0.0
          0.418659 0.10677 0.0
          0.37681 0.113371 0.0
          0.316083 0.111274 0.0
          0.305234 0.1183 0.0
          0.018564 0.131083 0.0
          0.183635 0.131115 0.0
          0.123956 0.13552 0.0
          0.198366 0.131764 0.0
          0.118633 0.152929 0.0
          0.197876 0.164754 0.0
          0.224641 0.180078 0.0
          0.231605 0.188323 0.0
          0.0978284 0.187595 0.0
          0.0836075 0.190357 0.0
          0.0194139 0.188479 0.0
          0.157751 0.192204 0.0
          0.13947 0.205804 0.0
          0.239695 0.210572 0.0
          0.198162 0.211703 0.0
          0.0310653 0.209271 0.0
          0.0353927 0.213637 0.0
          0.173442 0.231198 0.0
          0.115523 0.241263 0.0
          0.248596 0.245 0.0
          0.453617 0.171028 0.0
          0.451488 0.179091 0.0
          0.380765 0.171702 0.0
          0.447656 0.200185 0.0
          0.344213 0.129066 0.0
          0.422152 0.199474 0.0
          0.308326 0.200605 0.0
          0.360056 0.210955 0.0
          0.346984 0.211977 0.0
          0.423954 0.221671 0.0
          0.434849 0.227269 0.0
          0.472583 0.237773 0.0
          0.28622 0.234054 0.0
          0.256857 0.166667 0.0
          0.725185 0.0858311 0.0
          0.724483 0.0171002 0.0
          0.725439 0.0185478 0.0
          0.701454 0.0633872 0.0
          0.669722 0.0667532 0.0
          0.671791 0.0170032 0.0
          0.658897 0.0768508 0.0
          0.641217 0.00512769 0.0
          0.630928 0.0842105 0.0
          0.598427 0.0198976 0.0
          0.604913 0.000221803 0.0
          0.572756 0.048621 0.0
          0.569934 0.0420481 0.0
          0.539572 0.0239341 0.0
          0.528692 0.0718154 0.0
          0.531172 0.0991471 0.0
          0.559738 0.120827 0.0
          0.999202 0.0700835 0.0
          0.985442 0.105853 0.0
          0.932083 0.0145423 0.0
          0.924857 0.0803724 0.0
          0.924469 0.0118076 0.0
          0.905722 0.0547818 0.0
          0.893366 0.116959 0.0
          0.887808 0.0576381 0.0
          0.857902 0.108246 0.0
          0.820059 0.0301546 0.0
          0.819301 0.0857931 0.0
          0.809857 0.0550986 0.0
          0.796494 0.100747 0.0
          0.797988 0.111066 0.0
          0.797882 0.106226 0.0
          0.783686 0.0780843 0.0
          0.766709 0.0479833 0.0
          0.816606 0.124218 0.0
          0.744849 0.227432 0.0
          0.747497 0.179436 0.0
          0.726921 0.159261 0.0
          0.677577 0.194312 0.0
          0.664001 0.175679 0.0
          0.627874 0.197497 0.0
          0.597824 0.173796 0.0
          0.568889 0.224667 0.0
          0.577597 0.23451 0.0
          0.553526 0.144362 0.0
          0.549099 0.201674 0.0
          0.54347 0.157166 0.0
          0.501049 0.190854 0.0
          0.509621 0.216019 0.0
          0.981765 0.227648 0.0
          0.994485 0.207581 0.0
          0.955214 0.199375 0.0
          0.955888 0.135974 0.0
          0.918643 0.149431 0.0
          0.898798 0.169546 0.0
          0.876115 0.198859 0.0
          0.867417 0.152767 0.0
          0.847059 0.206463 0.0
          0.898971 0.249087 0.0
          0.774513 0.131812 0.0
          0.762342 0.225075 0.0
          0.766749 0.227963 0.0
          0.751843 0.136066 0.0
          0.757803 0.24807 0.0
          0.192305 0.258656 0.0
          0.17996 0.256454 0.0
          0.173678 0.273735 0.0
          0.0443506 0.270116 0.0
          0.161262 0.285991 0.0
          0.00126607 0.284537 0.0
          0.101128 0.287249 0.0
          0.0734874 0.298747 0.0
          0.118233 0.303059 0.0
          0.202661 0.314801 0.0
          0.162242 0.316732 0.0
          0.117385 0.317506 0.0
          0.0732172 0.32024 0.0
          0.183318 0.333006 0.0
          0.0974267 0.345072 0.0
          0.117376 0.342863 0.0
          0.131822 0.370092 0.0
          0.44448 0.257387 0.0
          0.334116 0.25161 0.0
          0.403233 0.302124 0.0
          0.388439 0.306652 0.0
          0.389472 0.311016 0.0
          0.314074 0.282643 0.0
          0.495313 0.332007 0.0
          0.300065 0.251455 0.0
          0.297055 0.279474 0.0
          0.489399 0.34609 0.0
          0.447141 0.346375 0.0
          0.275912 0.289811 0.0
          0.263485 0.26683 0.0
          0.258812 0.361398 0.0
          0.372069 0.367404 0.0
          0.246918 0.384115 0.0
          0.101253 0.375384 0.0
          0.234111 0.392767 0.0
          0.248598 0.40222 0.0
          0.213755 0.390936 0.0
          0.146057 0.384986 0.0
          0.106665 0.382485 0.0
          0.0477403 0.39231 0.0
          0.242879 0.417672 0.0
          0.0399729 0.394689 0.0
          0.124072 0.411456 0.0
          0.162547 0.423579 0.0
          0.146594 0.447644 0.0
          0.205841 0.460318 0.0
          0.0190949 0.458366 0.0
          0.221221 0.47807 0.0
          0.0853396 0.474165 0.0
          0.179456 0.485357 0.0
          0.0720475 0.478208 0.0
          0.0416185 0.482022 0.0
          0.14998 0.490642 0.0
          0.495001 0.375301 0.0
          0.359277 0.385607 0.0
          0.440723 0.405702 0.0
          0.396958 0.414254 0.0
          0.413988 0.426232 0.0
          0.350204 0.408232 0.0
          0.383941 0.432181 0.0
          0.296908 0.391403 0.0
          0.303823 0.433288 0.0
          0.45556 0.463758 0.0
          0.271257 0.426353 0.0
          0.264746 0.455818 0.0
          0.345789 0.485103 0.0
          0.485597 0.495405 0.0
          0.29839 0.496111 0.0
          0.698884 0.280505 0.0
          0.731519 0.284778 0.0
          0.740868 0.301493 0.0
          0.722739 0.272894 0.0
          0.694968 0.32677 0.0
          0.66206 0.294135 0.0
          0.67634 0.258921 0.0
          0.673792 0.278781 0.0
          0.661321 0.294743 0.0
          0.663566 0.254527 0.0
          0.65049 0.262464 0.0
          0.619849 0.277974 0.0
          0.584344 0.338948 0.0
          0.622817 0.350655 0.0
          0.557434 0.345385 0.0
          0.553286 0.289748 0.0
          0.536781 0.334161 0.0
          0.53363 0.327727 0.0
          0.524135 0.299914 0.0
          0.653162 0.368946 0.0
          0.508352 0.346833 0.0
          0.552253 0.372636 0.0
          0.938769 0.305412 0.0
          0.960787 0.374899 0.0
          0.955186 0.324922 0.0
          0.978525 0.286265 0.0
          0.909949 0.352809 0.0
          0.883128 0.253711 0.0
          0.848887 0.330438 0.0
          0.851223 0.340094 0.0
          0.847028 0.28623 0.0
          0.81592 0.347792 0.0
          0.794601 0.297138 0.0
          0.776403 0.269265 0.0
          0.775819 0.256752 0.0
          0.764199 0.335277 0.0
          0.667847 0.382636 0.0
          0.712379 0.433805 0.0
          0.65137 0.409655 0.0
          0.631201 0.455705 0.0
          0.650897 0.441997 0.0
          0.734884 0.409024 0.0
          0.698012 0.459849 0.0
          0.590691 0.419729 0.0
          0.583219 0.39433 0.0
          0.537723 0.463743 0.0
          0.515309 0.412653 0.0
          0.544439 0.495848 0.0
          0.925186 0.486776 0.0
          0.901252 0.475906 0.0
          0.934373 0.424972 0.0
          0.884315 0.436715 0.0
          0.886881 0.419832 0.0
          0.867471 0.468773 0.0
          0.97996 0.41789 0.0
          0.829977 0.488512 0.0
          0.830312 0.433925 0.0
          0.83203 0.412706 0.0
          0.834694 0.377755 0.0
          0.955097 0.378417 0.0
          0.787772 0.4534 0.0
          1.21376 0.083976 0.0
          1.23908 0.0833441 0.0
          1.18858 0.0247628 0.0
          1.19613 0.105394 0.0
          1.22822 0.0267048 0.0
          1.18478 0.0959558 0.0
          1.20025 0.0316261 0.0
          1.21604 0.0432766 0.0
          1.16808 0.0858616 0.0
          1.14597 0.0373041 0.0
          1.12984 0.0656209 0.0
          1.12071 0.0352676 0.0
          1.10559 0.00258118 0.0
          1.0713 0.0290755 0.0
          1.07235 0.087663 0.0
          1.06213 0.0475228 0.0
          1.04627 0.113143 0.0
          1.02685 0.119562 0.0
          1.0023 0.0684088 0.0
          1.01105 0.107828 0.0
          1.01103 0.0570637 0.0
          1.43426 0.0408585 0.0
          1.3683 0.076961 0.0
          1.4227 0.019711 0.0
          1.49631 0.0203435 0.0
          1.49371 0.0198681 0.0
          1.35557 0.00971755 0.0
          1.29039 0.0763414 0.0
          1.26681 0.0232296 0.0
          1.27079 0.0754006 0.0
          1.25844 0.115958 0.0
          1.22604 0.185891 0.0
          1.22792 0.247918 0.0
          1.24072 0.154455 0.0
          1.14833 0.153392 0.0
          1.14143 0.175434 0.0
          1.1446 0.156701 0.0
          1.15117 0.138374 0.0
          1.15691 0.137252 0.0
          1.09435 0.169888 0.0
          1.14152 0.130428 0.0
          1.07075 0.216442 0.0
          1.07182 0.193373 0.0
[...]
      <PointData Scalars="scalars">
        <DataArray type="Float64" Name="velocity" NumberOfComponents="3" Format="ascii">
          0.21032 -0.0292692 0 
          0.181964 -0.0533354 0 
          0.122223 -0.0207005 0 
          0.0793053 -0.0265688 0 
          0.108467 -0.0351106 0 
          0.0980049 -0.0393158 0 
          0.182841 -0.0476097 0 
          0.0871853 -0.056513 0 
          0.203693 -0.0457293 0 
          0.0782884 -0.0698221 0 
          0.208588 -0.0638444 0 
          0.0973871 -0.069728 0 
          0.124447 -0.0722359 0 
          0.141948 -0.0781794 0 
          0.0610891 -0.083138 0 
          0.198259 -0.0836532 0 
          0.124026 -0.0940194 0 
          0.149156 -0.0934797 0 
          0.00262365 -0.102354 0 
          0.164829 -0.0935203 0 
          0.0741997 -0.106941 0 
          0.0632694 -0.108881 0 
          0.346459 -0.0175947 0 
          0.324371 -0.0307668 0 
          0.328658 -0.00149994 0 
          0.317459 -0.00688383 0 
          0.327341 -0.0483736 0 
          0.291077 -0.0198721 0 
          0.253494 -0.0685954 0 
          0.317365 -0.0606026 0 
          0.293204 -0.0705839 0 
          0.255496 -0.0781803 0 
          0.24766 -0.0846922 0 
          0.0167991 -0.123941 0 
          0.156406 -0.112366 0 
          0.107835 -0.122424 0 
          0.167975 -0.111054 0 
          0.102881 -0.138377 0 
          0.165649 -0.138185 0 
          0.184765 -0.145387 0 
          0.189176 -0.150217 0 
          0.0845073 -0.171142 0 
          0.0725632 -0.174947 0 
          0.0172967 -0.177066 0 
          0.132701 -0.167373 0 
          0.117504 -0.181692 0 
          0.192759 -0.164894 0 
          0.162251 -0.175653 0 
          0.0273513 -0.195576 0 
          0.0310545 -0.199316 0 
          0.142059 -0.196499 0 
          0.0966434 -0.215537 0 
          0.194704 -0.187055 0 
          0.324319 -0.0870517 0 
          0.321578 -0.0913011 0 
          0.287475 -0.104184 0 
          0.314834 -0.101925 0 
          0.27188 -0.0856596 0 
          0.303246 -0.108471 0 
          0.240127 -0.139546 0 
          0.268804 -0.1316 0 
          0.261289 -0.135883 0 
          0.298622 -0.118535 0 
          0.302 -0.117792 0 
          0.314263 -0.110319 0 
          0.220981 -0.167607 0 
          0.209731 -0.128506 0 
          0.429119 -0.0168342 0 
          0.436218 -0.00345436 0 
          0.436352 -0.00372669 0 
          0.427726 -0.0140836 0 
          0.419874 -0.0170686 0 
          0.424378 -0.00438479 0 
          0.41572 -0.0204893 0 
          0.416313 -0.0015036 0 
          0.40691 -0.0250314 0 
          0.402627 -0.0068041 0 
          0.40511 -7.45712e-05 0 
          0.392045 -0.0179958 0 
          0.391503 -0.0157405 0 
          0.380806 -0.00992628 0 
          0.372995 -0.0303891 0 
          0.370504 -0.0413114 0 
          0.377504 -0.0456689 0 
          0.451214 0.00284788 0 
          0.444472 0.00315453 0 
          0.457574 -0.000198619 0 
          0.450278 -0.00151086 0 
          0.457522 -0.000237032 0 
          0.453719 -0.00192564 0 
          0.440989 -0.00514542 0 
          0.452571 -0.00289505 0 
          0.441177 -0.00802174 0 
          0.449855 -0.00333143 0 
          0.442631 -0.00931577 0 
          0.446361 -0.00652857 0 
          0.436956 -0.0129022 0 
          0.434743 -0.0140117 0 
          0.435883 -0.0134399 0 
          0.439716 -0.0110013 0 
          0.441341 -0.00759455 0 
          0.433397 -0.0135462 0 
          0.384979 -0.0364158 0 
          0.406637 -0.0296373 0 
          0.410826 -0.0298674 0 
          0.388997 -0.0449053 0 
          0.393005 -0.0437204 0 
          0.376638 -0.0559933 0 
          0.376635 -0.0561257 0 
          0.350501 -0.0773691 0 
          0.348978 -0.0777104 0 
          0.370351 -0.0551861 0 
          0.352761 -0.0755458 0 
          0.363739 -0.0616672 0 
          0.339308 -0.0838375 0 
          0.334845 -0.0908195 0 
          0.396836 0.00609585 0 
          0.406905 0.00749208 0 
          0.411594 0.00141829 0 
          0.436599 0.000931594 0 
          0.431841 -0.00335514 0 
          0.423782 -0.00638355 0 
          0.410167 -0.0107819 0 
          0.428578 -0.0097976 0 
          0.404914 -0.0159014 0 
          0.384306 -0.00832398 0 
          0.426301 -0.0192202 0 
          0.388124 -0.0326392 0 
          0.387153 -0.0321099 0 
          0.421936 -0.0226252 0 
          0.375522 -0.0360432 0 
          0.153435 -0.213554 0 
          0.144685 -0.215032 0 
          0.138425 -0.230025 0 
          0.037798 -0.249012 0 
          0.12822 -0.242695 0 
          0.00109407 -0.263947 0 
          0.0829388 -0.256542 0 
          0.0607078 -0.270403 0 
          0.0950359 -0.266208 0 
          0.153586 -0.251259 0 
          0.125758 -0.265783 0 
          0.0933731 -0.277922 0 
          0.0596312 -0.288348 0 
          0.138134 -0.27081 0 
          0.0767148 -0.304073 0 
          0.0914216 -0.297788 0 
          0.099079 -0.314417 0 
          0.29692 -0.127535 0 
          0.246024 -0.162672 0 
          0.264786 -0.161095 0 
          0.257063 -0.169042 0 
          0.255943 -0.17039 0 
          0.227973 -0.187344 0 
          0.281139 -0.131391 0 
          0.226474 -0.174145 0 
          0.219115 -0.192074 0 
          0.27206 -0.137309 0 
          0.261084 -0.156804 0 
          0.204616 -0.206479 0 
          0.201241 -0.196754 0 
          0.178871 -0.255486 0 
          0.227139 -0.199733 0 
          0.166832 -0.274238 0 
          0.0774024 -0.326758 0 
          0.157789 -0.285933 0 
          0.162896 -0.282524 0 
          0.146978 -0.295562 0 
          0.106888 -0.320463 0 
          0.080657 -0.330729 0 
          0.037385 -0.350447 0 
          0.155651 -0.293443 0 
          0.0314219 -0.353406 0 
          0.089567 -0.346357 0 
          0.111452 -0.339355 0 
          0.0983458 -0.361163 0 
          0.126085 -0.336599 0 
          0.0144005 -0.404723 0 
          0.127478 -0.334245 0 
          0.0587934 -0.401473 0 
          0.107615 -0.364837 0 
          0.0501122 -0.408181 0 
          0.0298296 -0.418217 0 
          0.0925856 -0.384253 0 
          0.255898 -0.140606 0 
          0.214846 -0.212658 0 
          0.2267 -0.173825 0 
          0.211808 -0.199637 0 
          0.208485 -0.192201 0 
          0.201554 -0.22481 0 
          0.198358 -0.210836 0 
          0.188331 -0.24929 0 
          0.174777 -0.260606 0 
          0.187212 -0.171721 0 
          0.16542 -0.279037 0 
          0.152051 -0.294327 0 
          0.15846 -0.243972 0 
          0.1596 -0.153797 0 
          0.143077 -0.280367 0 
          0.349806 -0.0536926 0 
          0.350959 -0.0458367 0 
          0.340701 -0.0449858 0 
          0.357386 -0.0467639 0 
          0.318325 -0.0596161 0 
          0.336183 -0.0655883 0 
          0.35883 -0.0565499 0 
          0.347254 -0.0601676 0 
          0.335693 -0.0658852 0 
          0.358949 -0.0591182 0 
          0.352419 -0.063937 0 
          0.338199 -0.0754203 0 
          0.294744 -0.0974418 0 
          0.292291 -0.0851136 0 
          0.285905 -0.10863 0 
          0.317279 -0.0991466 0 
          0.288957 -0.114714 0 
          0.292075 -0.114661 0 
          0.304901 -0.111935 0 
          0.281602 -0.0762618 0 
          0.275662 -0.128847 0 
          0.266669 -0.114767 0 
          0.34673 -0.000720797 0 
          0.287071 0.00490543 0 
          0.331377 0.00292904 0 
          0.360509 0.00696247 0 
          0.30733 -0.00681841 0 
          0.381037 -0.011429 0 
          0.325137 -0.0207031 0 
          0.317176 -0.0203498 0 
          0.35843 -0.0198193 0 
          0.309362 -0.0289943 0 
          0.347799 -0.0319312 0 
          0.364863 -0.0340477 0 
          0.372341 -0.0331099 0 
          0.317136 -0.0412926 0 
          0.271399 -0.0721338 0 
          0.223627 -0.0585273 0 
          0.245958 -0.0789631 0 
          0.198973 -0.0867234 0 
          0.21383 -0.079455 0 
          0.2498 -0.0516721 0 
          0.194596 -0.0626477 0 
          0.232928 -0.10276 0 
          0.254067 -0.104331 0 
          0.189418 -0.1271 0 
          0.232489 -0.135714 0 
          0.156519 -0.122732 0 
          0.159127 -0.00169166 0 
          0.173334 -0.0075652 0 
          0.234921 -0.000466425 0 
          0.221303 -0.0123479 0 
          0.24041 -0.0119195 0 
          0.182476 -0.0159598 0 
          0.242864 0.00992748 0 
          0.15725 -0.0248485 0 
          0.224228 -0.0259571 0 
          0.247609 -0.0256779 0 
          0.282899 -0.0249018 0 
          0.283689 0.0036801 0 
          0.201521 -0.0367737 0 
          0.421722 0.018291 0 
          0.416055 0.0200279 0 
          0.433597 0.00492406 0 
          0.421229 0.0212129 0 
          0.424824 0.00624673 0 
          0.425405 0.0184155 0 
          0.430792 0.00660217 0 
          0.426467 0.00961112 0 
          0.430407 0.0152852 0 
          0.440547 0.00601654 0 
          0.439908 0.00960649 0 
          0.444554 0.00493388 0 
          0.447939 0.000331391 0 
          0.45092 0.00287631 0 
          0.443157 0.00861016 0 
          0.450202 0.00432144 0 
          0.439569 0.00869517 0 
          0.439101 0.00736026 0 
          0.451345 0.00294544 0 
          0.442953 0.00533594 0 
          0.452548 0.00284974 0 
          0.355265 0.0173078 0 
          0.378192 0.0277486 0 
          0.361199 0.00817087 0 
          0.327265 0.00978817 0 
          0.32857 0.0095136 0 
          0.387699 0.00343428 0 
          0.403657 0.0219881 0 
          0.415219 0.00625358 0 
          0.409242 0.0203319 0 
          0.404973 0.0296545 0 
          0.391158 0.0410551 0 
          0.362953 0.0531054 0 
          0.398922 0.0366264 0 
          0.416361 0.0242364 0 
          0.409412 0.0264237 0 
          0.41579 0.0242371 0 
          0.42067 0.0223227 0 
          0.420103 0.0228122 0 
          0.417192 0.0191938 0 
          0.424425 0.0200402 0 
          0.398636 0.019876 0 
          0.409493 0.0181737 0 
          0.435823 0.00828915 0 
          0.306979 0.0947473 0 
          0.313704 0.078528 0 
          0.347011 0.071777 0 
          0.325447 0.0884615 0 
          0.31109 0.0757914 0 
          0.328616 0.0639551 0 
          0.353136 0.053319 0 
          0.364806 0.0601741 0 
          0.361199 0.0496251 0 
          0.373675 0.0537305 0 
          0.376948 0.0510833 0 
          0.380944 0.048042 0 
          0.385795 0.0453813 0 
          0.364504 0.0559863 0 
          0.184971 0.0312004 0 
          0.218936 0.00780688 0 
          0.277682 0.0317107 0 
          0.268959 0.0473041 0 
          0.28453 0.03494 0 
          0.284442 0.0582262 0 
          0.295331 0.012782 0 
          0.305811 0.025341 0 
          0.303704 0.060942 0 
          0.142897 0.0572775 0 
          0.0296419 0.035914 0 
          0.123543 0.0286303 0 
          0.0725869 0.0329649 0 
          0.0817617 0.0577277 0 
          0.122629 0.0251485 0 
          0.0872373 0.0140623 0 
          0.0022312 0.049489 0 
          0.00711498 0.0274726 0 
          0.150189 0.0520637 0 
          0.14213 0.000246472 0 
          0.155119 0.0140953 0 
          0.0304189 0.029489 0 
          0.0743501 0.0835407 0 
          0.191647 0.10822 0 
          0.23639 0.114685 0 
          0.191658 0.130976 0 
          0.190901 0.144733 0 
          0.264241 0.107361 0 
          0.185713 0.134349 0 
          0.21347 0.0993389 0 
          0.163255 0.128696 0 
          0.277495 0.101019 0 
          0.176509 0.087991 0 
          0.286489 0.0879885 0 
          0.296224 0.0910946 0 
          0.0502149 0.0963724 0 
          0.0968439 0.110978 0 
          0.118689 0.11235 0 
          0.11409 0.0952067 0 
          0.0564723 0.13946 0 
          0.00415647 0.119913 0 
          0.134456 0.140305 0 
          0.12145 0.141408 0 
          0.0537776 0.157255 0 
          0.106951 0.159906 0 
          0.0545443 0.158752 0 
          0.0154323 0.0951438 0 
          0.153672 0.11507 0 
          0.290845 0.0727535 0 
          0.283107 0.073092 0 
          0.33548 0.0400069 0 
          0.332359 0.0594845 0 
          0.351433 0.0516468 0 
          0.341825 0.0308972 0 
          0.369378 0.0365439 0 
          0.376172 0.0222351 0 
          0.377183 0.02489 0 
          0.380765 0.016945 0 
          0.375377 0.0172784 0 
          0.319802 0.0186626 0 
          0.348096 0.0169282 0 
          0.378501 0.026126 0 
          0.268172 0.111326 0 
          0.258003 0.130375 0 
          0.251747 0.130395 0 
          0.260028 0.136061 0 
          0.286249 0.103486 0 
          0.28744 0.112417 0 
          0.274936 0.126359 0 
          0.313532 0.0922248 0 
          0.316261 0.0919938 0 
          0.327571 0.0831076 0 
          0.310831 0.098037 0 
          0.300433 0.107131 0 
          0.330462 0.0805702 0 
          0.278158 0.0929272 0 
          0.317272 0.0828271 0 
          0.320411 0.079502 0 
          0.294301 0.0838727 0 
          0.314307 0.0783928 0 
          0.32457 0.0726516 0 
          0.348189 0.0623121 0 
          0.179355 0.0482106 0 
          0.189969 0.0572395 0 
          0.18114 0.0752135 0 
          0.224312 0.0552256 0 
          0.233933 0.0450162 0 
          0.221237 0.0364915 0 
          0.241151 0.0431116 0 
          0.237787 0.034081 0 
          0.242007 0.0630948 0 
          0.249646 0.0506673 0 
          0.260989 0.0486973 0 
          0.246334 0.0298643 0 
          0.260414 0.0549717 0 
          0.152265 0.023822 0 
          0.217362 0.0258713 0 
          0.235767 0.0262901 0 
          0.260274 0.0241428 0 
          0.279324 0.0407705 0 
          0.171638 0.0152312 0 
          0.269273 0.015752 0 
          0.176148 0.109631 0 
          0.177988 0.159158 0 
          0.190542 0.118973 0 
          0.197633 0.13099 0 
          0.183776 0.1657 0 
          0.212656 0.118014 0 
          0.220738 0.114475 0 
          0.217825 0.13906 0 
          0.204834 0.173693 0 
          0.167771 0.0968756 0 
          0.240598 0.134749 0 
          0.241079 0.137763 0 
          0.265393 0.0897336 0 
          0.232776 0.0869205 0 
          0.234255 0.151073 0 
          0.182543 0.18004 0 
          0.165057 0.191618 0 
          0.186471 0.180256 0 
          0.202239 0.181418 0 
          0.182322 0.177616 0 
          0.162434 0.199361 0 
          0.185362 0.17909 0 
          0.211775 0.167299 0 
          0.242974 0.149883 0 
          0.164729 0.163845 0 
          0.254693 0.142052 0 
          0.237299 0.136226 0 
          0.0835537 0.18419 0 
          0.0958783 0.183662 0 
          0.0926864 0.215071 0 
          0.066858 0.215244 0 
          0.103912 0.184456 0 
          0.0273469 0.196194 0 
          0.0687059 0.194983 0 
          0.0649005 0.219177 0 
          0.0560939 0.221971 0 
          0.0245238 0.226254 0 
          0.00881035 0.226336 0 
          0.0818265 0.173822 0 
          0.103713 0.170819 0 
          0.121387 0.206067 0 
          0.135568 0.179002 0 
          0.0214221 0.169188 0 
          0.0621582 0.164858 0 
          0.0337963 0.166356 0 
          0.111493 0.246662 0 
          0.137233 0.223727 0 
          0.116131 0.247534 0 
          0.134784 0.21317 0 
          0.116192 0.247746 0 
          0.118506 0.2467 0 
          0.0968676 0.250538 0 
          0.103418 0.245007 0 
          0.0815513 0.26101 0 
          0.162969 0.213315 0 
          0.177684 0.196212 0 
          0.163213 0.214066 0 
          0.157424 0.203462 0 
          0.160492 0.216169 0 
          0.161796 0.214916 0 
          0.176801 0.20354 0 
          0.181899 0.191056 0 
          0.181092 0.200363 0 
          0.135515 0.222104 0 
          0.199079 0.186389 0 
          0.0550123 0.25298 0 
          0.0587876 0.246298 0 
          0.0548607 0.245019 0 
          0.0474041 0.245302 0 
          0.0157916 0.25688 0 
          0.0297943 0.267941 0 
          0.0598857 0.242127 0 
          0.0862664 0.238398 0 
          0.07032 0.23897 0 
          0.0212845 0.239242 0 
          0.052629 0.238129 0 
          0.0417535 0.235079 0 
          0.100954 0.236815 0 
          0.057299 0.231106 0 
          0.0305405 0.231158 0 
          0.0987867 0.241867 0 
          0.0418339 -0.43489 0 
          0.0449021 -0.464329 0 
          0.0677805 -0.408187 0 
          0.0438835 -0.474893 0 
          0.0239628 -0.501444 0 
          0.141337 -0.242548 0 
          0.109512 -0.210296 0 
          0.130393 -0.294762 0 
          0.118454 -0.263948 0 
          0.10787 -0.231555 0 
          0.10957 -0.248692 0 
          0.0934556 -0.2044 0 
          0.133004 -0.299418 0 
          0.0611896 -0.174878 0 
          0.100975 -0.287702 0 
          0.0895831 -0.292536 0 
          0.0127067 -0.149949 0 
          0.0451459 -0.425135 0 
          0.01597 -0.367939 0 
          0.0341477 -0.441903 0 
          0.0139244 -0.375203 0 
          0.00247432 -0.419564 0 
          0.0152068 -0.531398 0 
          -0.0264244 -0.360916 0 
          -0.045276 -0.330494 0 
          0.00413135 -0.457387 0 
          0.00986771 -0.509923 0 
          0.00636974 -0.177112 0 
          -0.0294135 -0.191991 0 
          0.0387253 -0.262315 0 
          -0.12052 -0.11816 0 
          -0.014497 -0.123653 0 
          -0.1215 -0.104792 0 
          -0.163921 -0.121756 0 
          -0.178018 -0.0923285 0 
          -0.143683 -0.16837 0 
          0.0820189 -0.0629723 0 
          0.0969022 -0.0926869 0 
          0.0173193 -0.0805462 0 
          0.10857 -0.0717408 0 
          0.0910495 -0.0431363 0 
          0.0648788 -0.0705393 0 
          0.0149691 -0.0528603 0 
          0.0120758 -0.0640215 0 
          0.0384543 -0.0446497 0 
          0.101015 -0.0970946 0 
          0.0746665 -0.0833148 0 
          0.0830784 -0.0776129 0 
          0.0514169 -0.0854314 0 
          0.117397 -0.0976065 0 
          0.0585239 -0.117778 0 
          0.00858739 -0.0828686 0 
          0.00177406 -0.0769531 0 
          -0.000986479 -0.0855999 0 
          -0.0122001 -0.0795723 0 
          -0.0435412 -0.0436096 0 
          0.0919418 -0.135864 0 
          -0.0333004 0.0125205 0 
          -0.00786628 -0.000589764 0 
          -0.0564616 -0.00630148 0 
          0.00595394 -0.0140297 0 
          -0.0150015 0.00869044 0 
          -0.0209424 -0.00127665 0 
          -0.0149731 -0.0112484 0 
          -0.00989775 0.00952551 0 
          0.0120731 0.00601125 0 
          0.0738838 -0.0100693 0 
          0.0165984 -0.0341451 0 
          0.0736822 0.00878335 0 
          0.110963 -0.00842738 0 
          0.138946 0.00411232 0 
          -0.14897 -0.0748491 0 
          -0.131297 -0.0763882 0 
          -0.0956835 -0.0765778 0 
          -0.102012 -0.093498 0 
          -0.0952896 -0.0819626 0 
          -0.0779343 -0.0675616 0 
          -0.0770909 -0.0379932 0 
          -0.0927391 -0.0359379 0 
          -0.283161 -0.0269472 0 
          -0.120736 -0.0324109 0 
          -0.288074 -0.0364445 0 
          -0.233229 -0.0247361 0 
          -0.102363 -0.0314995 0 
          -0.216851 -0.0217328 0 
          -0.195518 -0.0212866 0 
          -0.296492 -0.00844547 0 
          -0.2262 -0.0222379 0 
          -0.167195 -0.0217362 0 
          -0.205012 -0.00234985 0 
          -0.242137 0.000348906 0 
          -0.190348 -0.00609176 0 
          -0.168939 -0.0103115 0 
          -0.110845 -0.0141212 0 
          -0.101131 -0.0234494 0 
          -0.0611871 -0.0295729 0 
          -0.100746 -0.00567057 0 
          -0.068553 -0.0190523 0 
          -0.277969 0.000247455 0 
          -0.085265 0.00809069 0 
          -0.286004 0.00463151 0 
          -0.28686 0.00970982 0 
          -0.0455884 -0.364881 0 
          -0.0352123 -0.396054 0 
          -0.0738795 -0.315788 0 
          -0.106172 -0.286212 0 
          -0.0883218 -0.371476 0 
          0.00158659 -0.564098 0 
          -0.089135 -0.383252 0 
          -0.109027 -0.266024 0 
          -0.00174926 -0.560625 0 