<?xml version="1.0"?>
<VTKFile type="UnstructuredGrid" version="0.1" byte_order="LittleEndian">
  <UnstructuredGrid>
    <Piece NumberOfPoints="1000" NumberOfCells="1000">
      <Points>
        <DataArray name="Position" type="Float64" NumberOfComponents="3" Format="ascii">
          0.210729 0.000946036 0.0
          0.100206 0.0438653 0.0
          0.023681 0.0282503 0.0
          0.183921 0.00361537 0.0
          0.0441754 0.000715262 0.0
          0.166796 0.0638238 0.0
          0.0266035 0.0540012 0.0
          0.186377 0.00183779 0.0
          0.0650702 0.0794699 0.0
          0.0811615 0.102382 0.0
          0.180414 0.102612 0.0
          0.0274076 0.112687 0.0
          0.191888 0.121421 0.0
          0.219545 0.12288 0.0
          0.463289 0.0295088 0.0
          0.481102 0.0866054 0.0
          0.41589 0.0383891 0.0
          0.446408 0.0762427 0.0
          0.382436 0.0181924 0.0
          0.452153 0.0952843 0.0
          0.345914 0.00564847 0.0
          0.372516 0.0976762 0.0
          0.333907 0.0955928 0.0
          0.277457 0.112928 0.0
          0.267788 0.0605397 0.0
          0.268145 0.0303439 0.0
          0.154107 0.13721 0.0
          0.143202 0.145957 0.0
          0.0929874 0.14826 0.0
          0.192921 0.15799 0.0
          0.198336 0.156444 0.0
          0.156335 0.156046 0.0
          0.175187 0.157764 0.0
          0.161709 0.164772 0.0
          0.135087 0.163472 0.0
          0.0540507 0.163329 0.0
          0.0462902 0.176962 0.0
          0.186501 0.18016 0.0
          0.246313 0.190332 0.0
          0.197559 0.18765 0.0
          0.166457 0.195911 0.0
          0.0952496 0.199592 0.0
          0.181976 0.214223 0.0
          0.202708 0.224548 0.0
          0.0224194 0.22612 0.0
          0.00715382 0.232023 0.0
          0.48134 0.136059 0.0
          0.425593 0.14324 0.0
          0.469647 0.145475 0.0
          0.406622 0.174806 0.0
          0.357519 0.174283 0.0
          0.317473 0.126022 0.0
          0.398261 0.209619 0.0
          0.430787 0.21534 0.0
          0.313367 0.207144 0.0
          0.298254 0.161508 0.0
          0.297694 0.201924 0.0
          0.321435 0.235743 0.0
          0.458235 0.243504 0.0
          0.730977 0.0980072 0.0
          0.724871 0.10056 0.0
          0.723254 0.0813544 0.0
          0.712339 0.107461 0.0
          0.705844 0.0149296 0.0
          0.682004 0.048452 0.0
          0.689338 0.00913474 0.0
          0.667719 0.0623865 0.0
          0.64974 0.0569484 0.0
          0.63262 0.0435771 0.0
          0.704543 0.117845 0.0
          0.588869 0.0379232 0.0
          0.567071 0.0880897 0.0
          0.500102 0.0857475 0.0
          0.500992 0.0630636 0.0
          0.98911 0.0833297 0.0
          0.988155 0.0973562 0.0
          0.990012 0.00113082 0.0
          0.956477 0.0732128 0.0
          0.931362 0.0678502 0.0
          0.937088 0.0933132 0.0
          0.895884 0.0272803 0.0
          0.873858 0.0815587 0.0
          0.857065 0.0519829 0.0
          0.833542 0.00673665 0.0
          0.80556 0.0389036 0.0
          0.814494 0.0496846 0.0
          0.778624 0.0287667 0.0
          0.771201 0.0843544 0.0
          0.737599 0.131302 0.0
          0.747047 0.173716 0.0
          0.698845 0.188116 0.0
          0.696157 0.1941 0.0
          0.651727 0.182703 0.0
          0.621065 0.16745 0.0
          0.618763 0.126441 0.0
          0.605086 0.189847 0.0
          0.58528 0.131452 0.0
          0.59032 0.130818 0.0
          0.716549 0.240797 0.0
          0.535804 0.171329 0.0
          0.620432 0.244041 0.0
          0.500958 0.129824 0.0
          0.982807 0.232122 0.0
          0.936823 0.192391 0.0
          0.938549 0.177017 0.0
          0.92394 0.223068 0.0
          0.929542 0.191959 0.0
          0.939947 0.154806 0.0
          0.918227 0.208755 0.0
          0.908764 0.170538 0.0
          0.879972 0.196695 0.0
          0.838533 0.21076 0.0
          0.848766 0.177881 0.0
          0.824387 0.205169 0.0
          0.82156 0.216103 0.0
          0.785675 0.18359 0.0
          0.757178 0.150529 0.0
          0.751846 0.133615 0.0
          0.829425 0.249542 0.0
          0.245893 0.29249 0.0
          0.0863028 0.291842 0.0
          0.240008 0.296597 0.0
          0.117217 0.287345 0.0
          0.11932 0.293978 0.0
          0.110458 0.295746 0.0
          0.218705 0.306177 0.0
          0.0375518 0.303294 0.0
          0.0751588 0.314124 0.0
          0.105972 0.318903 0.0
          0.102225 0.335134 0.0
          0.0118843 0.337997 0.0
          0.185313 0.348379 0.0
          0.0968571 0.343046 0.0
          0.0492699 0.343803 0.0
          0.170924 0.360773 0.0
          0.0950748 0.362069 0.0
          0.0547511 0.36485 0.0
          0.490542 0.295671 0.0
          0.364501 0.257994 0.0
          0.348273 0.252284 0.0
          0.437479 0.302737 0.0
          0.439336 0.304364 0.0
          0.412928 0.315328 0.0
          0.46112 0.341416 0.0
          0.481785 0.344088 0.0
          0.28266 0.295024 0.0
          0.277538 0.342629 0.0
          0.303386 0.341185 0.0
          0.261512 0.361783 0.0
          0.389372 0.374057 0.0
          0.241211 0.390497 0.0
          0.230496 0.415405 0.0
          0.228128 0.416784 0.0
          0.123875 0.430256 0.0
          0.101456 0.435233 0.0
          0.0162679 0.441263 0.0
          0.122969 0.444963 0.0
          0.171076 0.457333 0.0
          0.172314 0.454981 0.0
          0.0971707 0.452839 0.0
          0.219944 0.472555 0.0
          0.21225 0.471637 0.0
          0.0157422 0.464173 0.0
          0.245544 0.484464 0.0
          0.235835 0.492446 0.0
          0.0118566 0.498908 0.0
          0.413526 0.396293 0.0
          0.396235 0.388977 0.0
          0.436034 0.409449 0.0
          0.388824 0.397203 0.0
          0.321843 0.380797 0.0
          0.393133 0.404445 0.0
          0.357359 0.401862 0.0
          0.460567 0.429896 0.0
          0.387039 0.410543 0.0
          0.325557 0.397413 0.0
          0.326728 0.468657 0.0
          0.299809 0.479585 0.0
          0.3608 0.487964 0.0
          0.463832 0.495216 0.0
          0.407668 0.496399 0.0
          0.338283 0.493021 0.0
          0.306156 0.494873 0.0
          0.732506 0.264954 0.0
          0.70104 0.302405 0.0
          0.705358 0.315366 0.0
          0.656347 0.303979 0.0
          0.582064 0.295169 0.0
          0.626248 0.352421 0.0
          0.58152 0.250785 0.0
          0.576682 0.350362 0.0
          0.589058 0.355394 0.0
          0.547343 0.282453 0.0
          0.540435 0.330107 0.0
          0.655203 0.369211 0.0
          0.557069 0.365697 0.0
          0.515115 0.269257 0.0
          0.698804 0.372238 0.0
          0.623384 0.370286 0.0
          0.506657 0.294748 0.0
          0.508541 0.337613 0.0
          0.980771 0.304772 0.0
          0.909518 0.253547 0.0
          0.871367 0.361794 0.0
          0.882721 0.323428 0.0
          0.894788 0.263204 0.0
          0.947769 0.256363 0.0
          0.885905 0.287595 0.0
          0.881094 0.314309 0.0
          0.981946 0.258981 0.0
          0.870006 0.270125 0.0
          0.857486 0.274022 0.0
          0.835463 0.314337 0.0
          0.830939 0.259047 0.0
          0.826651 0.30148 0.0
          0.827329 0.272577 0.0
          0.776383 0.301258 0.0
          0.668706 0.454952 0.0
          0.730702 0.406114 0.0
          0.686123 0.412473 0.0
          0.706248 0.440906 0.0
          0.724867 0.409686 0.0
          0.625437 0.449167 0.0
          0.605886 0.426484 0.0
          0.603037 0.393484 0.0
          0.586475 0.409283 0.0
          0.590946 0.397689 0.0
          0.584265 0.377634 0.0
          0.546406 0.411053 0.0
          0.922772 0.488908 0.0
          0.908114 0.495036 0.0
          0.953226 0.455245 0.0
          0.88919 0.482238 0.0
          0.87878 0.487653 0.0
          0.880989 0.480499 0.0
          0.884945 0.465143 0.0
          0.914431 0.408089 0.0
          0.83215 0.494498 0.0
          0.849992 0.440567 0.0
          0.852052 0.418608 0.0
          0.809771 0.467947 0.0
          0.789254 0.483233 0.0
          0.797317 0.375324 0.0
          0.750626 0.390857 0.0
          0.756601 0.40881 0.0
          0.750813 0.375743 0.0
          1.2032 0.0693105 0.0
          1.17935 0.10092 0.0
          1.23464 0.105526 0.0
          1.20553 0.0925631 0.0
          1.18744 0.00345519 0.0
          1.20102 0.00569043 0.0
          1.17276 0.0437675 0.0
          1.16542 0.027206 0.0
          1.15775 0.0378141 0.0
          1.15678 0.106404 0.0
          1.15697 0.0219839 0.0
          1.14219 0.0662245 0.0
          1.1292 0.0840629 0.0
          1.12451 0.0180259 0.0
          1.11506 0.124654 0.0
          1.08847 0.0983409 0.0
          1.08592 0.00503524 0.0
          1.0453 0.0606396 0.0
          1.04968 0.0616997 0.0
          1.02645 0.0306237 0.0
          1.02774 0.0989782 0.0
          1.38622 0.0958644 0.0
          1.43614 0.0810099 0.0
          1.38633 0.0345699 0.0
          1.48732 0.10813 0.0
          1.41461 0.0422317 0.0
          1.40407 0.108481 0.0
          1.4698 0.109639 0.0
          1.38629 0.00347033 0.0
          1.36709 0.0270487 0.0
          1.34653 0.00783669 0.0
          1.30624 0.073406 0.0
          1.29202 0.104061 0.0
          1.17029 0.235887 0.0
          1.19857 0.209422 0.0
          1.21448 0.224813 0.0
          1.15921 0.169575 0.0
          1.15296 0.198836 0.0
          1.10358 0.23786 0.0
          1.10968 0.203087 0.0
          1.10954 0.183866 0.0
          1.08881 0.177107 0.0
          1.08282 0.14917 0.0
          1.05018 0.229712 0.0
          1.04637 0.141435 0.0
          1.01579 0.176002 0.0
          1.41881 0.224017 0.0
          1.40002 0.182349 0.0
          1.44008 0.173959 0.0
          1.39681 0.243692 0.0
          1.41935 0.162114 0.0
          1.48624 0.154606 0.0
          1.34736 0.181701 0.0
          1.34288 0.176549 0.0
          1.3475 0.137728 0.0
          1.48953 0.138438 0.0
          1.31621 0.147708 0.0
[...]
      <PointData Scalars="scalars">
        <DataArray type="Float64" Name="velocity" NumberOfComponents="3" Format="ascii">
          0.181276 -0.000796158 0 
          0.0893596 -0.0405065 0 
          0.0216829 -0.0268519 0 
          0.159693 -0.00313452 0 
          0.0402028 -0.000677877 0 
          0.14505 -0.0559809 0 
          0.0242936 -0.0512239 0 
          0.16169 -0.00158955 0 
          0.0584846 -0.0744402 0 
          0.0722632 -0.0951016 0 
          0.155013 -0.0884838 0 
          0.0248168 -0.106507 0 
          0.163381 -0.103222 0 
          0.184908 -0.100967 0 
          0.346464 -0.0152537 0 
          0.350783 -0.0420533 0 
          0.321196 -0.0222566 0 
          0.335002 -0.0407171 0 
          0.302447 -0.0114 0 
          0.33594 -0.0499181 0 
          0.279834 -0.00381778 0 
          0.292211 -0.0615537 0 
          0.268405 -0.0651137 0 
          0.228829 -0.0849652 0 
          0.224546 -0.0466242 0 
          0.225603 -0.023448 0 
          0.132492 -0.120966 0 
          0.123297 -0.129747 0 
          0.0815422 -0.136371 0 
          0.162248 -0.133456 0 
          0.166541 -0.131349 0 
          0.13348 -0.136937 0 
          0.148384 -0.135885 0 
          0.137344 -0.143666 0 
          0.115999 -0.145908 0 
          0.0478877 -0.152572 0 
          0.0409626 -0.165438 0 
          0.155845 -0.152644 0 
          0.199715 -0.148349 0 
          0.163771 -0.156694 0 
          0.139277 -0.169031 0 
          0.0819775 -0.182013 0 
          0.149872 -0.181074 0 
          0.164439 -0.184645 0 
          0.0196832 -0.211195 0 
          0.00630716 -0.217032 0 
          0.343676 -0.0651412 0 
          0.31598 -0.0792176 0 
          0.336738 -0.0717176 0 
          0.30071 -0.0998814 0 
          0.273904 -0.111033 0 
          0.255121 -0.0881025 0 
          0.289214 -0.120106 0 
          0.303387 -0.11358 0 
          0.24224 -0.142349 0 
          0.238778 -0.115985 0 
          0.233199 -0.143241 0 
          0.242052 -0.157563 0 
          0.306867 -0.117254 0 
          0.427868 -0.0185657 0 
          0.426242 -0.0196395 0 
          0.429522 -0.016142 0 
          0.422398 -0.0222824 0 
          0.432452 -0.0033067 0 
          0.424926 -0.0118244 0 
          0.428863 -0.00218765 0 
          0.419907 -0.016113 0 
          0.415762 -0.0158697 0 
          0.412111 -0.0130459 0 
          0.418488 -0.025269 0 
          0.398497 -0.0133331 0 
          0.385618 -0.03283 0 
          0.359419 -0.0394121 0 
          0.362139 -0.0290848 0 
          0.449262 0.00272397 0 
          0.446376 0.00310674 0 
          0.457191 3.82644e-05 0 
          0.451747 0.000498281 0 
          0.452523 -0.000926081 0 
          0.447862 -0.000806982 0 
          0.455895 -0.00120212 0 
          0.447991 -0.00501007 0 
          0.451302 -0.00399544 0 
          0.452203 -0.000669166 0 
          0.44752 -0.00479173 0 
          0.447516 -0.00569339 0 
          0.444686 -0.00426853 0 
          0.436863 -0.0128116 0 
          0.421078 -0.0236814 0 
          0.408759 -0.0289034 0 
          0.395491 -0.0396323 0 
          0.392637 -0.0412041 0 
          0.387751 -0.0476167 0 
          0.385111 -0.049823 0 
          0.395379 -0.0387887 0 
          0.37344 -0.0590319 0 
          0.383981 -0.0454151 0 
          0.38574 -0.0444185 0 
          0.374505 -0.0442196 0 
          0.357364 -0.0683381 0 
          0.355387 -0.0684135 0 
          0.353219 -0.0587963 0 
          0.394355 0.00638303 0 
          0.414827 -0.00134611 0 
          0.421558 -0.00106817 0 
          0.399515 -0.00353638 0 
          0.414954 -0.00242049 0 
          0.430226 -0.000837769 0 
          0.406787 -0.00432945 0 
          0.4237 -0.00505558 0 
          0.411352 -0.0100874 0 
          0.402249 -0.01761 0 
          0.417786 -0.0138682 0 
          0.403879 -0.0196308 0 
          0.398336 -0.0209322 0 
          0.409696 -0.0239992 0 
          0.41826 -0.0240557 0 
          0.422636 -0.0222471 0 
          0.380809 -0.0216893 0 
          0.185537 -0.220135 0 
          0.0711227 -0.262759 0 
          0.181013 -0.225094 0 
          0.0953185 -0.25369 0 
          0.0964783 -0.258663 0 
          0.0896307 -0.261845 0 
          0.165511 -0.239526 0 
          0.0315353 -0.278249 0 
          0.0614045 -0.282996 0 
          0.0847665 -0.281459 0 
          0.0809115 -0.295187 0 
          0.00991479 -0.309538 0 
          0.137245 -0.280765 0 
          0.0764226 -0.302589 0 
          0.0400285 -0.311094 0 
          0.126148 -0.29466 0 
          0.0738834 -0.317936 0 
          0.0436226 -0.32756 0 
          0.297886 -0.123729 0 
          0.260601 -0.155663 0 
          0.253553 -0.158231 0 
          0.277612 -0.147323 0 
          0.277609 -0.14713 0 
          0.263573 -0.16208 0 
          0.267481 -0.149039 0 
          0.271383 -0.140312 0 
          0.207483 -0.206867 0 
          0.193459 -0.235885 0 
          0.207042 -0.222648 0 
          0.180192 -0.254279 0 
          0.230169 -0.193124 0 
          0.162162 -0.2808 0 
          0.150117 -0.299786 0 
          0.148551 -0.301863 0 
          0.0872678 -0.359175 0 
          0.072534 -0.370076 0 
          0.0125097 -0.392209 0 
          0.0849085 -0.369175 0 
          0.10983 -0.354963 0 
          0.110954 -0.353019 0 
          0.0681334 -0.383427 0 
          0.128699 -0.332853 0 
          0.125733 -0.337657 0 
          0.0118413 -0.40942 0 
          0.134369 -0.318459 0 
          0.128016 -0.328797 0 
          0.00863167 -0.434993 0 
          0.226011 -0.186511 0 
          0.22513 -0.193904 0 
          0.223425 -0.177023 0 
          0.218804 -0.200092 0 
          0.202545 -0.2311 0 
          0.21622 -0.199548 0 
          0.206859 -0.218842 0 
          0.213686 -0.166375 0 
          0.211301 -0.20441 0 
          0.197619 -0.235371 0 
          0.164169 -0.25451 0 
          0.15192 -0.275871 0 
          0.159013 -0.233852 0 
          0.160326 -0.166893 0 
          0.157811 -0.202609 0 
          0.152271 -0.250311 0 
          0.14533 -0.274251 0 
          0.363228 -0.0435359 0 
          0.336068 -0.0555715 0 
          0.327613 -0.0556294 0 
          0.329112 -0.0685842 0 
          0.320931 -0.0906179 0 
          0.291431 -0.0840995 0 
          0.34301 -0.0808102 0 
          0.285826 -0.101967 0 
          0.284215 -0.0979532 0 
          0.319466 -0.0994121 0 
          0.29211 -0.112497 0 
          0.281579 -0.0755857 0 
          0.27223 -0.11184 0 
          0.316721 -0.106723 0 
          0.282525 -0.0615832 0 
          0.277493 -0.0868523 0 
          0.302853 -0.117104 0 
          0.28102 -0.126827 0 
          0.346983 0.00783018 0 
          0.381873 -0.00642053 0 
          0.298598 -0.0158362 0 
          0.331826 -0.0128625 0 
          0.375514 -0.00939165 0 
          0.380524 0.000678004 0 
          0.358945 -0.0116381 0 
          0.339011 -0.0131064 0 
          0.378556 0.00693736 0 
          0.370235 -0.0144882 0 
          0.367156 -0.0171764 0 
          0.337382 -0.0233638 0 
          0.37524 -0.0219308 0 
          0.346587 -0.0248897 0 
          0.366515 -0.0233989 0 
          0.343607 -0.0363829 0 
          0.20012 -0.0727917 0 
          0.252613 -0.0528745 0 
          0.24489 -0.0669775 0 
          0.215868 -0.0603949 0 
          0.248901 -0.0546566 0 
          0.205786 -0.0890845 0 
          0.227598 -0.0967592 0 
          0.256703 -0.0963644 0 
          0.241843 -0.104008 0 
          0.252065 -0.101455 0 
          0.26729 -0.102385 0 
          0.23683 -0.121309 0 
          0.156284 -0.00221909 0 
          0.14803 -0.00554758 0 
          0.199457 0.00435694 0 
          0.16511 -0.0103445 0 
          0.158002 -0.012747 0 
          0.167402 -0.0123756 0 
          0.187025 -0.0117279 0 
          0.253333 -0.00539332 0 
          0.149273 -0.0241028 0 
          0.216685 -0.0208538 0 
          0.241467 -0.0205714 0 
          0.183768 -0.030645 0 
          0.164681 -0.035542 0 
          0.284117 -0.0343019 0 
          0.267997 -0.04691 0 
          0.250386 -0.0454893 0 
          0.282059 -0.0464837 0 
          0.426275 0.0145077 0 
          0.425404 0.0188709 0 
          0.412942 0.0248074 0 
          0.421931 0.0194498 0 
          0.434441 0.000687546 0 
          0.431612 0.00119998 0 
          0.43531 0.00805591 0 
          0.437892 0.00485668 0 
          0.438523 0.00648032 0 
          0.428146 0.0178195 0 
          0.43966 0.00376916 0 
          0.43794 0.0103845 0 
          0.437003 0.0122003 0 
          0.445006 0.00259226 0 
          0.429663 0.0164467 0 
          0.43929 0.0109156 0 
          0.450287 0.000562825 0 
          0.449987 0.0046719 0 
          0.449505 0.00496897 0 
          0.45436 0.00191344 0 
          0.444188 0.00618636 0 
          0.368839 0.0360286 0 
          0.350737 0.0342348 0 
          0.375323 0.0131409 0 
          0.323817 0.0505322 0 
          0.363514 0.017128 0 
          0.35988 0.0424601 0 
          0.331753 0.0494858 0 
          0.376293 0.00132663 0 
          0.382982 0.00981532 0 
          0.390926 0.00270483 0 
          0.399376 0.0222476 0 
          0.398545 0.0299493 0 
          0.378069 0.0396538 0 
          0.386471 0.040751 0 
          0.376686 0.0463235 0 
          0.409048 0.0281146 0 
          0.398169 0.0314065 0 
          0.384664 0.0274286 0 
          0.401557 0.0249469 0 
          0.409986 0.0228291 0 
          0.414898 0.0191563 0 
          0.425811 0.0156425 0 
          0.393081 0.0174013 0 
          0.431386 0.010802 0 
          0.420364 0.00917798 0 
          0.323579 0.0876691 0 
          0.344107 0.0693721 0 
          0.331062 0.0727731 0 
          0.323636 0.0896336 0 
          0.342421 0.0649813 0 
          0.315752 0.0715466 0 
          0.362061 0.060325 0 
          0.365078 0.0580088 0 
          0.374289 0.0464439 0 
          0.317556 0.0646917 0 
          0.381505 0.0453841 0 
          0.284847 0.0330518 0 
          0.269148 0.0563789 0 
          0.257401 0.0369576 0 
          0.269143 0.0112577 0 
          0.25191 0.0278528 0 
          0.205271 0.0286464 0 
          0.241811 0.0549839 0 
          0.224943 0.00931938 0 
          0.266218 0.0672789 0 
          0.216031 0.0105098 0 
          0.257568 0.00457542 0 
          0.268431 0.0189483 0 
          0.190709 0.0145588 0 
          0.2765 0.0558838 0 
          0.222677 0.0708293 0 
          0.191409 0.0480393 0 
          0.258734 0.0433084 0 
          0.257936 0.0397265 0 
          0.294417 0.021526 0 
          0.300302 0.0244159 0 
          0.302224 0.0339645 0 
          0.322845 0.00304468 0 
          0.0237526 0.047734 0 
          0.1131 0.0136995 0 
          0.0652981 0.0436559 0 
          0.0214571 0.0727717 0 
          0.071199 0.0777234 0 
          0.0868731 0.0617589 0 
          0.149527 0.00370529 0 
          0.0770263 0.0247241 0 
          0.0333359 0.0541024 0 
          0.0645482 0.0243615 0 
          0.00393048 0.0245311 0 
          0.149911 0.056176 0 
          0.129537 0.0557342 0 
          0.0601422 0.0762346 0 
          0.0383819 0.0125895 0 
          0.119744 0.0348407 0 
          0.0526109 0.060129 0 
          0.0775049 0.035642 0 
          0.115011 0.0696239 0 
          0.168905 0.031955 0 
          0.184491 0.10239 0 
          0.222107 0.13365 0 
          0.254286 0.0882604 0 
          0.253016 0.128946 0 
          0.208444 0.0989932 0 
          0.197126 0.141554 0 
          0.228655 0.110079 0 
          0.192873 0.11069 0 
          0.195295 0.123117 0 
          0.192467 0.145234 0 
          0.268959 0.116643 0 
          0.26761 0.074432 0 
          0.278667 0.107358 0 
          0.282706 0.0705599 0 
          0.28208 0.110003 0 
          0.218802 0.0757386 0 
          0.197343 0.0792172 0 
          0.0239233 0.13171 0 
          0.11308 0.131759 0 
          0.140965 0.100237 0 
          0.0932101 0.156801 0 
          0.134506 0.143319 0 
          0.135353 0.133024 0 
          0.0955353 0.142538 0 
          0.0208423 0.160483 0 
          0.145023 0.144907 0 
          0.134294 0.0878214 0 
          0.154168 0.114851 0 
          0.156785 0.0962831 0 
          0.0859925 0.0860298 0 
          0.316075 0.0549448 0 
          0.328857 0.0608972 0 
          0.333618 0.0384066 0 
          0.340359 0.0636696 0 
          0.319926 0.0325422 0 
          0.359894 0.0434665 0 
          0.364163 0.0367959 0 
          0.373511 0.0266398 0 
          0.327152 0.0255777 0 
          0.323319 0.0260733 0 
          0.306367 0.0214792 0 
          0.31647 0.0185876 0 
          0.367129 0.0439038 0 
          0.376811 0.0276592 0 
          0.362887 0.0133544 0 
          0.354222 0.0116238 0 
          0.373785 0.0119086 0 
          0.265339 0.121324 0 
          0.229746 0.158734 0 
          0.27741 0.105163 0 
          0.265756 0.129442 0 
          0.287168 0.103854 0 
          0.26795 0.131824 0 
          0.276732 0.0999498 0 
          0.31457 0.0890009 0 
          0.303066 0.104744 0 
          0.315706 0.0870632 0 
          0.324132 0.0878575 0 
          0.329467 0.0830263 0 
          0.301943 0.0867274 0 
          0.324961 0.0792594 0 
          0.326601 0.0866717 0 
          0.297739 0.0849373 0 
          0.332976 0.0742258 0 
          0.282785 0.0820889 0 
          0.281949 0.116509 0 
          0.345506 0.0715585 0 
          0.156935 0.074893 0 
          0.195807 0.0470435 0 
          0.175145 0.0646454 0 
          0.171451 0.0814552 0 
          0.217292 0.0414132 0 
          0.194172 0.0568858 0 
          0.217652 0.0449945 0 
          0.213197 0.0687471 0 
          0.229401 0.0379522 0 
          0.240532 0.0431856 0 
          0.175352 0.0307548 0 
          0.196531 0.0314091 0 
          0.236845 0.0652397 0 
          0.156779 0.0259759 0 
          0.206794 0.0297553 0 
          0.251659 0.0660613 0 
          0.2563 0.0794334 0 
          0.260912 0.0685592 0 
          0.170795 0.0227076 0 
          0.198639 0.0242554 0 
          0.272093 0.0423908 0 
          0.27617 0.0245266 0 
          0.268476 0.0231914 0 
          0.27439 0.0214498 0 
          0.266681 0.0206463 0 
          0.152145 0.16798 0 
          0.164534 0.142396 0 
          0.158623 0.171302 0 
          0.177488 0.10852 0 
          0.171104 0.15177 0 
          0.195413 0.134833 0 
          0.182398 0.16445 0 
          0.218047 0.110034 0 
          0.190838 0.176786 0 
          0.228427 0.125641 0 
          0.236017 0.107822 0 
          0.225886 0.136892 0 
          0.222597 0.153489 0 
          0.209981 0.0944252 0 
          0.259385 0.107573 0 
          0.248497 0.133956 0 
          0.172063 0.199191 0 
          0.146808 0.196035 0 
          0.161261 0.182937 0 
          0.163527 0.203188 0 
          0.215208 0.173183 0 
          0.148411 0.20731 0 
          0.146905 0.178562 0 
          0.129262 0.213514 0 
          0.162354 0.17159 0 
          0.17692 0.16703 0 
          0.242414 0.143236 0 
          0.243903 0.140328 0 
          0.204289 0.156167 0 
          0.167997 0.165635 0 
          0.225453 0.16576 0 
          0.252739 0.141439 0 
          0.159478 0.159584 0 
          0.255568 0.139891 0 
          0.220623 0.140676 0 
          0.268823 0.130034 0 
          0.0722784 0.191834 0 
          0.104266 0.222842 0 
          0.0885946 0.186296 0 
          0.0943178 0.199816 0 
          0.0665267 0.216422 0 
          0.0860845 0.213792 0 
          0.1157 0.206117 0 
          0.0333702 0.200449 0 
          0.018629 0.193972 0 
          0.0804376 0.214572 0 
          0.0702944 0.215079 0 
          0.00323025 0.179897 0 
          0.119496 0.18715 0 
          0.0849543 0.22457 0 
          0.107353 0.173611 0 
          0.0377399 0.17431 0 
          0.110957 0.166617 0 
          0.00243323 0.169298 0 
          0.136699 0.160929 0 
          0.0566774 0.163219 0 
          0.0953629 0.262323 0 
          0.137993 0.21119 0 
          0.0930521 0.263417 0 
          0.0941515 0.260893 0 
          0.146046 0.226538 0 
          0.168827 0.204806 0 
          0.0882263 0.253505 0 
          0.1409 0.227895 0 
          0.1449 0.225757 0 
          0.105442 0.240828 0 
          0.183968 0.196826 0 
          0.0367306 0.250229 0 
          0.0556604 0.254482 0 
          0.0705077 0.250469 0 
          0.0726308 0.248727 0 
          0.0545524 0.2615 0 
          0.0105506 0.244206 0 
          0.0690188 0.257422 0 
          0.00860137 0.261157 0 
          0.0084865 0.266267 0 
          0.0643684 0.240903 0 
          0.0388709 0.24218 0 
          0.0669584 0.237991 0 
          0.101451 0.23457 0 
          0.0877624 0.231359 0 
          0.0354381 0.233499 0 
          0.0114952 0.231746 0 
          0.095515 0.245642 0 
          0.121397 -0.328838 0 
          0.104108 -0.355375 0 
          0.0450593 -0.45704 0 
          0.0354386 -0.462639 0 
          0.00159624 -0.479762 0 
          0.0476695 -0.461149 0 
          0.0271137 -0.476771 0 
          0.0248934 -0.479291 0 
          0.0661207 -0.433645 0 
          0.0156091 -0.486459 0 
          0.0145291 -0.485924 0 
          0.00593983 -0.507217 0 
          0.150445 -0.163806 0 
          0.131973 -0.222626 0 
          0.13302 -0.227787 0 
          0.0945921 -0.160102 0 
          0.073227 -0.162703 0 
          0.0874668 -0.225715 0 
          0.0557591 -0.205452 0 
          0.109924 -0.319759 0 
          0.056767 -0.283775 0 
          0.0405505 -0.36475 0 
          0.0330041 -0.363149 0 
          0.0319739 -0.499096 0 
          0.00557568 -0.346004 0 
          0.00522925 -0.529365 0 
          0.0320204 -0.480037 0 
          0.0180162 -0.524888 0 
          -0.0045009 -0.380501 0 
          0.00135192 -0.554831 0 
          0.00677077 -0.493065 0 
          0.000511911 -0.566392 0 
          -0.0352018 -0.159303 0 
          0.0257264 -0.194667 0 
          -0.0023446 -0.166807 0 
          -0.0452774 -0.139296 0 
          -0.00351434 -0.216035 0 
          -0.01384 -0.216828 0 
          -0.110374 -0.12749 0 
          0.0216045 -0.265777 0 
          -0.1192 -0.135531 0 
          -0.0604827 -0.202965 0 
          -0.136197 -0.136365 0 
          -0.17817 -0.0947949 0 
          -0.21032 -0.0853435 0 
          -0.220665 -0.0853946 0 
          -0.11123 -0.201913 0 
          -0.170978 -0.136062 0 
          -0.15334 -0.161599 0 
          0.0852171 -0.0700393 0 
          0.056165 -0.0951627 0 
          0.0646165 -0.0771653 0 
          0.0131806 -0.0803735 0 
          0.0838579 -0.0668919 0 
          0.0527366 -0.0598094 0 
          0.0927407 -0.10596 0 
          0.13621 -0.114904 0 
          0.0554861 -0.119658 0 
          0.0223983 -0.110119 0 
          0.130027 -0.130616 0 
          0.0631635 -0.129561 0 
          -0.0135318 -0.094779 0 
          0.069714 -0.0243699 0 
          0.0323556 -0.0156651 0 
          0.0322002 -0.019666 0 
          -0.0476529 -0.00188495 0 
          -0.0295342 -0.0155123 0 
          -0.0315477 -0.0159122 0 
          0.0600572 -0.00679103 0 
          0.0541047 -0.00733084 0 
          0.0895563 -0.0103546 0 
          0.0660783 -0.0291098 0 
          0.101805 0.00535565 0 
          0.109111 0.00564659 0 
          0.0927281 0.0133874 0 
          0.110927 0.0143144 0 
          0.0887678 -0.0350639 0 
          0.102771 -0.0389509 0 
          0.139292 -0.0415317 0 
          -0.161532 -0.078364 0 
          -0.0613584 -0.0784806 0 
          -0.0694752 -0.0714161 0 
          -0.127184 -0.0416062 0 
          -0.202086 -0.0430308 0 
          -0.157712 -0.0624145 0 
          -0.0459247 -0.0979353 0 
          -0.15589 -0.084711 0 
          -0.222654 -0.0597619 0 
          -0.195091 -0.0728082 0 
          -0.218462 -0.0450673 0 
          -0.0723533 -0.0854657 0 
          -0.182988 -0.0726772 0 
          -0.191884 -0.0786852 0 
          -0.134698 -0.0622396 0 