<?xml version="1.0"?>
<VTKFile type="UnstructuredGrid" version="0.1" byte_order="LittleEndian">
  <UnstructuredGrid>
    <Piece NumberOfPoints="1000" NumberOfCells="1000">
      <Points>
        <DataArray name="Position" type="Float64" NumberOfComponents="3" Format="ascii">
          0.188956 0.0470863 0.0
          0.161593 0.0827352 0.0
          0.104509 0.0302199 0.0
          0.0663923 0.0378593 0.0
          0.0922189 0.0508365 0.0
          0.0829231 0.0565894 0.0
          0.162227 0.0738785 0.0
          0.0735554 0.080963 0.0
          0.182902 0.0730131 0.0
          0.0659204 0.0996873 0.0
          0.188933 0.103059 0.0
          0.0828198 0.100522 0.0
          0.107461 0.106035 0.0
          0.124015 0.116503 0.0
          0.0511415 0.117967 0.0
          0.239515 0.120985 0.0
          0.363476 0.040429 0.0
          0.428496 0.0275172 0.0
          0.329768 0.0651689 0.0
          0.455356 0.0477131 0.0
          0.480307 0.0223364 0.0
          0.486005 0.000248496 0.0
          0.457978 0.0550945 0.0
          0.333471 0.00317927 0.0
          0.419956 0.0827819 0.0
          0.316852 0.0140618 0.0
          0.339362 0.105323 0.0
          0.42306 0.114037 0.0
          0.281136 0.0377112 0.0
          0.107797 0.138226 0.0
          0.0139057 0.174315 0.0
          0.131591 0.140489 0.0
          0.243552 0.139094 0.0
          0.0629723 0.152731 0.0
          0.139816 0.170551 0.0
          0.235033 0.148416 0.0
          0.146871 0.142914 0.0
          0.0534118 0.154825 0.0
          0.00214361 0.143625 0.0
          0.0938611 0.178324 0.0
          0.151261 0.170785 0.0
          0.179837 0.133406 0.0
          0.0899377 0.201265 0.0
          0.151444 0.213227 0.0
          0.19783 0.21203 0.0
          0.172766 0.231167 0.0
          0.178473 0.241127 0.0
          0.240214 0.249961 0.0
          0.074305 0.247248 0.0
          0.359743 0.202065 0.0
          0.358417 0.211613 0.0
          0.449156 0.137223 0.0
          0.445021 0.164133 0.0
          0.43697 0.179249 0.0
          0.486852 0.193676 0.0
          0.327335 0.128442 0.0
          0.402124 0.220797 0.0
          0.29839 0.208702 0.0
          0.445545 0.228546 0.0
          0.292889 0.13855 0.0
          0.356539 0.236409 0.0
          0.266722 0.159546 0.0
          0.334712 0.237974 0.0
          0.411772 0.248384 0.0
          0.635799 0.0504674 0.0
          0.726857 0.110142 0.0
          0.666627 0.104712 0.0
          0.668718 0.115344 0.0
          0.686632 0.03113 0.0
          0.653118 0.0815705 0.0
          0.677392 0.05706 0.0
          0.598012 0.0915583 0.0
          0.668302 0.110336 0.0
          0.687838 0.088498 0.0
          0.595382 0.0182807 0.0
          0.596291 0.0198204 0.0
          0.57494 0.0682647 0.0
          0.545772 0.072752 0.0
          0.546584 0.018545 0.0
          0.536237 0.0840759 0.0
          0.518662 0.00566162 0.0
          0.511099 0.0931054 0.0
          0.976935 0.00241668 0.0
          0.869961 0.0663409 0.0
          0.931522 0.0451745 0.0
          0.881106 0.10425 0.0
          0.878541 0.0551789 0.0
          0.940771 0.0275502 0.0
          0.898266 0.114989 0.0
          0.866843 0.0680346 0.0
          0.943885 0.0830569 0.0
          0.918036 0.108127 0.0
          0.993479 0.0328614 0.0
          0.854636 0.103208 0.0
          0.797071 0.0144427 0.0
          0.79173 0.0799846 0.0
          0.789395 0.0117575 0.0
          0.771512 0.0548868 0.0
          0.762508 0.117572 0.0
          0.753794 0.0581015 0.0
          0.647652 0.137926 0.0
          0.629681 0.239126 0.0
          0.646128 0.235293 0.0
          0.650775 0.237917 0.0
          0.626275 0.189099 0.0
          0.626357 0.143498 0.0
          0.604748 0.16927 0.0
          0.687659 0.128131 0.0
          0.725924 0.21017 0.0
          0.739818 0.154778 0.0
          0.562049 0.209747 0.0
          0.547531 0.190863 0.0
          0.516462 0.217108 0.0
          0.953886 0.205201 0.0
          0.973294 0.159793 0.0
          0.955671 0.244515 0.0
          0.952141 0.183252 0.0
          0.863655 0.221927 0.0
          0.97124 0.240082 0.0
          0.979103 0.236363 0.0
          0.926912 0.241578 0.0
          0.87385 0.201606 0.0
          0.832805 0.196084 0.0
          0.826759 0.133832 0.0
          0.783594 0.249026 0.0
          0.790419 0.148862 0.0
          0.772627 0.169928 0.0
          0.901868 0.125424 0.0
          0.753575 0.200604 0.0
          0.0267872 0.282956 0.0
          0.152719 0.273184 0.0
          0.023487 0.277301 0.0
          0.106687 0.269187 0.0
          0.0634282 0.251307 0.0
          0.0146225 0.250115 0.0
          0.223769 0.293147 0.0
          0.120673 0.250681 0.0
          0.185541 0.268524 0.0
          0.133745 0.299771 0.0
          0.23594 0.312745 0.0
          0.193905 0.310632 0.0
          0.0886327 0.316221 0.0
          0.206912 0.335817 0.0
          0.149426 0.333085 0.0
          0.139558 0.331354 0.0
          0.235114 0.346809 0.0
          0.24946 0.348284 0.0
          0.135083 0.3537 0.0
          0.218322 0.36207 0.0
          0.0338942 0.356422 0.0
          0.125574 0.370218 0.0
          0.459736 0.324322 0.0
          0.358499 0.302359 0.0
          0.474653 0.261861 0.0
          0.38119 0.276869 0.0
          0.465649 0.251996 0.0
          0.337787 0.263658 0.0
          0.347553 0.268989 0.0
          0.43457 0.339055 0.0
          0.283231 0.257516 0.0
          0.272448 0.260035 0.0
          0.26409 0.308874 0.0
          0.327145 0.358385 0.0
          0.314773 0.365633 0.0
          0.447647 0.36743 0.0
          0.496962 0.372128 0.0
          0.451663 0.373774 0.0
          0.316126 0.37042 0.0
          0.000964331 0.375944 0.0
          0.078134 0.376114 0.0
          0.159876 0.401944 0.0
          0.0566955 0.3923 0.0
          0.0918872 0.39519 0.0
          0.127319 0.408718 0.0
          0.0915305 0.413571 0.0
          0.144962 0.426646 0.0
          0.0567481 0.419835 0.0
          0.208983 0.449804 0.0
          0.0762635 0.449862 0.0
          0.0921238 0.445532 0.0
          0.24435 0.476938 0.0
          0.200756 0.478446 0.0
          0.104546 0.47812 0.0
          0.0799917 0.487563 0.0
          0.190604 0.490858 0.0
          0.203732 0.49902 0.0
          0.173284 0.492278 0.0
          0.116705 0.49485 0.0
          0.0845366 0.495916 0.0
          0.371599 0.400634 0.0
          0.420288 0.423497 0.0
          0.427532 0.391426 0.0
          0.409968 0.393615 0.0
          0.47352 0.41154 0.0
          0.472952 0.382557 0.0
          0.413128 0.377659 0.0
          0.447358 0.458305 0.0
          0.307485 0.436191 0.0
          0.298573 0.458458 0.0
          0.375741 0.464658 0.0
          0.33704 0.481869 0.0
          0.354953 0.490977 0.0
          0.293688 0.484719 0.0
          0.666616 0.279326 0.0
          0.689548 0.305863 0.0
          0.668103 0.347154 0.0
          0.594151 0.298193 0.0
          0.626086 0.299331 0.0
          0.721714 0.354457 0.0
          0.663928 0.266641 0.0
          0.638261 0.315439 0.0
          0.738803 0.290248 0.0
          0.645149 0.259304 0.0
          0.615573 0.287998 0.0
          0.599331 0.346025 0.0
          0.561681 0.316173 0.0
          0.569304 0.27802 0.0
          0.570091 0.298982 0.0
          0.561093 0.316885 0.0
          0.556653 0.274666 0.0
          0.545601 0.284323 0.0
          0.519424 0.303931 0.0
          0.867675 0.370802 0.0
          0.833893 0.301165 0.0
          0.93214 0.324316 0.0
          0.872442 0.366819 0.0
          0.854618 0.318736 0.0
          0.870177 0.279098 0.0
          0.922788 0.290119 0.0
          0.991114 0.288689 0.0
          0.815947 0.350249 0.0
          0.768607 0.25485 0.0
          0.927472 0.25016 0.0
          0.750032 0.334054 0.0
          0.754608 0.343397 0.0
          0.586252 0.405724 0.0
          0.644322 0.450785 0.0
          0.577579 0.434801 0.0
          0.571868 0.482802 0.0
          0.586757 0.46671 0.0
          0.658731 0.423762 0.0
          0.72518 0.461387 0.0
          0.638868 0.477951 0.0
          0.568748 0.393826 0.0
          0.747924 0.382246 0.0
          0.535668 0.37913 0.0
          0.521687 0.453333 0.0
          0.50793 0.429015 0.0
          0.943775 0.462424 0.0
          0.872942 0.47939 0.0
          0.992378 0.497337 0.0
          0.997381 0.494841 0.0
          0.902534 0.491413 0.0
          0.986865 0.473096 0.0
          0.845274 0.47135 0.0
          0.860584 0.418223 0.0
          0.814773 0.434929 0.0
          0.811852 0.41817 0.0
          0.809316 0.467985 0.0
          0.979308 0.421379 0.0
          0.903808 0.406592 0.0
          0.977248 0.405351 0.0
          0.779757 0.491162 0.0
          0.990129 0.394181 0.0
          0.963745 0.383975 0.0
          0.925027 0.379316 0.0
          0.760517 0.437879 0.0
          0.755436 0.416905 0.0
          1.09636 0.0759072 0.0
          1.1244 0.074736 0.0
          1.06696 0.0225519 0.0
          1.078 0.095822 0.0
          1.11075 0.0240135 0.0
          1.14761 0.103384 0.0
          1.15384 0.0206388 0.0
          1.06508 0.0875572 0.0
          1.07989 0.0286959 0.0
          1.15957 0.0669491 0.0
          1.18172 0.0673829 0.0
          1.09754 0.0390742 0.0
          1.04637 0.0787713 0.0
          1.02025 0.120737 0.0
          1.02074 0.0344624 0.0
          1.00414 0.0609692 0.0
          1.34692 0.0348316 0.0
          1.45477 0.103248 0.0
          1.38375 0.122915 0.0
          1.27106 0.0664819 0.0
          1.33316 0.0168328 0.0
          1.29704 0.113651 0.0
          1.41963 0.0172131 0.0
          1.31955 0.116257 0.0
          1.46616 0.041707 0.0
          1.41655 0.0168144 0.0
          1.49148 0.0202816 0.0
          1.25507 0.00841524 0.0
          1.243 0.241945 0.0
          1.11697 0.167534 0.0
          1.23334 0.24098 0.0
          1.14794 0.176841 0.0
          1.15103 0.16305 0.0
          1.12603 0.223569 0.0
          1.15691 0.239244 0.0
[...]
      <PointData Scalars="scalars">
        <DataArray type="Float64" Name="velocity" NumberOfComponents="3" Format="ascii">
          0.160129 -0.0393289 0 
          0.137789 -0.071028 0 
          0.0915193 -0.0272811 0 
          0.058931 -0.0348567 0 
          0.081015 -0.0461787 0 
          0.0730628 -0.0516475 0 
          0.138472 -0.0634248 0 
          0.0648648 -0.0741334 0 
          0.154899 -0.0612935 0 
          0.0581464 -0.0914965 0 
          0.158813 -0.0856916 0 
          0.0725785 -0.0915233 0 
          0.0932036 -0.0951065 0 
          0.106659 -0.103187 0 
          0.045227 -0.108787 0 
          0.196431 -0.0934697 0 
          0.282045 -0.0244898 0 
          0.317134 -0.0139967 0 
          0.260837 -0.0425231 0 
          0.328981 -0.0221733 0 
          0.34062 -0.00954399 0 
          0.3432 -0.00010438 0 
          0.329771 -0.0253371 0 
          0.264513 -0.00207599 0 
          0.310195 -0.042757 0 
          0.253883 -0.00950165 0 
          0.264435 -0.0668592 0 
          0.308917 -0.0580044 0 
          0.229522 -0.027287 0 
          0.0928729 -0.123677 0 
          0.0123318 -0.16147 0 
          0.112234 -0.123444 0 
          0.1984 -0.106501 0 
          0.0550442 -0.13985 0 
          0.117831 -0.148253 0 
          0.191592 -0.115074 0 
          0.124414 -0.123868 0 
          0.0468423 -0.142267 0 
          0.00192257 -0.133591 0 
          0.0804538 -0.160268 0 
          0.126849 -0.146873 0 
          0.150674 -0.111839 0 
          0.0766394 -0.180757 0 
          0.124954 -0.182063 0 
          0.159834 -0.171502 0 
          0.139946 -0.192209 0 
          0.143424 -0.198714 0 
          0.186128 -0.187485 0 
          0.0626316 -0.222498 0 
          0.264973 -0.119023 0 
          0.262679 -0.124584 0 
          0.318073 -0.0638947 0 
          0.312203 -0.076768 0 
          0.3061 -0.0855406 0 
          0.322678 -0.0766979 0 
          0.255346 -0.0834853 0 
          0.282444 -0.115023 0 
          0.228873 -0.141301 0 
          0.299059 -0.103431 0 
          0.232683 -0.0966964 0 
          0.257194 -0.138381 0 
          0.213439 -0.116703 0 
          0.245387 -0.146879 0 
          0.280437 -0.123996 0 
          0.385443 -0.00912423 0 
          0.388353 -0.00474808 0 
          0.384173 -0.0137964 0 
          0.382739 -0.014783 0 
          0.39375 -0.00326311 0 
          0.385394 -0.0124835 0 
          0.391081 -0.00671715 0 
          0.373684 -0.0216081 0 
          0.383508 -0.0142345 0 
          0.388862 -0.00893535 0 
          0.378438 -0.00447463 0 
          0.37862 -0.00482165 0 
          0.370401 -0.0186456 0 
          0.361568 -0.023151 0 
          0.364857 -0.0059558 0 
          0.357465 -0.0279328 0 
          0.355659 -0.00207495 0 
          0.34799 -0.0345425 0 
          0.363164 0.00074909 0 
          0.385662 0.0106817 0 
          0.374713 0.0111433 0 
          0.379136 0.0182995 0 
          0.38521 0.00956089 0 
          0.373205 0.00716239 0 
          0.374287 0.0228658 0 
          0.385989 0.0106554 0 
          0.36821 0.0217627 0 
          0.371215 0.0244435 0 
          0.357041 0.0108659 0 
          0.383376 0.0143275 0 
          0.396637 0.000838856 0 
          0.392324 0.0040059 0 
          0.397083 0.000551598 0 
          0.395551 0.00114329 0 
          0.387541 0.000978751 0 
          0.395457 -0.000286462 0 
          0.37573 -0.0218207 0 
          0.344089 -0.0413535 0 
          0.347781 -0.0353022 0 
          0.347382 -0.0340493 0 
          0.359945 -0.0349245 0 
          0.371087 -0.0271974 0 
          0.361174 -0.0370902 0 
          0.38254 -0.0127728 0 
          0.363297 -0.00849068 0 
          0.379772 -0.00359748 0 
          0.340708 -0.0580559 0 
          0.342168 -0.0576624 0 
          0.326287 -0.0747363 0 
          0.341102 0.0550217 0 
          0.347443 0.047607 0 
          0.327867 0.0651286 0 
          0.347632 0.0490881 0 
          0.352774 0.0325471 0 
          0.325576 0.0689556 0 
          0.324761 0.0704178 0 
          0.335224 0.0553097 0 
          0.358097 0.0325768 0 
          0.364795 0.0208286 0 
          0.38123 0.0133079 0 
          0.348613 0.00966865 0 
          0.380521 0.00718652 0 
          0.375838 0.00396645 0 
          0.37179 0.0255219 0 
          0.366911 -0.000518157 0 
          0.022752 -0.257721 0 
          0.122122 -0.230145 0 
          0.0200328 -0.253011 0 
          0.0875816 -0.236482 0 
          0.0536501 -0.227198 0 
          0.0126632 -0.229567 0 
          0.169623 -0.222929 0 
          0.0992986 -0.21864 0 
          0.146229 -0.217891 0 
          0.106245 -0.255638 0 
          0.174558 -0.230929 0 
          0.147492 -0.245905 0 
          0.0714777 -0.27836 0 
          0.152585 -0.258136 0 
          0.114687 -0.276854 0 
          0.107939 -0.278465 0 
          0.168124 -0.252445 0 
          0.176277 -0.246149 0 
          0.102831 -0.296552 0 
          0.155327 -0.269863 0 
          0.0275364 -0.319235 0 
          0.094818 -0.311716 0 
          0.272454 -0.129931 0 
          0.242837 -0.169875 0 
          0.300089 -0.104449 0 
          0.259921 -0.148652 0 
          0.300107 -0.104707 0 
          0.242114 -0.159721 0 
          0.245944 -0.15862 0 
          0.258905 -0.146712 0 
          0.212662 -0.177 0 
          0.205715 -0.18261 0 
          0.192476 -0.216016 0 
          0.212258 -0.209918 0 
          0.204605 -0.219815 0 
          0.24968 -0.147316 0 
          0.257519 -0.121141 0 
          0.247521 -0.146581 0 
          0.203721 -0.221157 0 
          0.000791067 -0.337743 0 
          0.0607359 -0.328269 0 
          0.113653 -0.321693 0 
          0.0441873 -0.344968 0 
          0.0695344 -0.339697 0 
          0.0922941 -0.338774 0 
          0.0680333 -0.353364 0 
          0.101144 -0.343992 0 
          0.043171 -0.366088 0 
          0.131493 -0.323972 0 
          0.0552015 -0.383541 0 
          0.0659898 -0.375917 0 
          0.138527 -0.310688 0 
          0.120231 -0.342977 0 
          0.0706321 -0.393373 0 
          0.0548721 -0.408267 0 
          0.112543 -0.355504 0 
          0.115755 -0.350047 0 
          0.104495 -0.367265 0 
          0.0755902 -0.398722 0 
          0.0569842 -0.412189 0 
          0.212816 -0.199681 0 
          0.213389 -0.174971 0 
          0.232775 -0.164292 0 
          0.227196 -0.175055 0 
          0.230135 -0.140715 0 
          0.247393 -0.136441 0 
          0.23569 -0.169139 0 
          0.194575 -0.161876 0 
          0.176279 -0.251013 0 
          0.163763 -0.263834 0 
          0.179638 -0.210623 0 
          0.161715 -0.240941 0 
          0.159531 -0.228955 0 
          0.150233 -0.274284 0 
          0.331596 -0.0323177 0 
          0.319783 -0.0249365 0 
          0.293878 -0.03584 0 
          0.313398 -0.0632994 0 
          0.317366 -0.0502175 0 
          0.291382 -0.0126388 0 
          0.337147 -0.0322882 0 
          0.310255 -0.0467059 0 
          0.329837 -0.00544776 0 
          0.338239 -0.0384264 0 
          0.321518 -0.0531562 0 
          0.28809 -0.0668624 0 
          0.299005 -0.0800447 0 
          0.31818 -0.0701573 0 
          0.308927 -0.0735475 0 
          0.29854 -0.0804225 0 
          0.316989 -0.0745618 0 
          0.3106 -0.081049 0 
          0.296273 -0.0964677 0 
          0.276721 0.0511874 0 
          0.321502 0.0309832 0 
          0.297334 0.0729404 0 
          0.279032 0.0529395 0 
          0.31022 0.0407205 0 
          0.328933 0.0422355 0 
          0.316029 0.0632872 0 
          0.302096 0.0884742 0 
          0.293524 0.027124 0 
          0.346447 0.00483077 0 
          0.331927 0.0572466 0 
          0.304924 -0.000844045 0 
          0.298959 0.00115723 0 
          0.246385 -0.0781929 0 
          0.210613 -0.0495048 0 
          0.222264 -0.0839828 0 
          0.177455 -0.0871819 0 
          0.193604 -0.0793634 0 
          0.235921 -0.0423444 0 
          0.201433 -0.0101318 0 
          0.183168 -0.0518071 0 
          0.253496 -0.0863419 0 
          0.271881 -0.00110715 0 
          0.259292 -0.101788 0 
          0.20334 -0.11525 0 
          0.221758 -0.121797 0 
          0.199133 0.0959454 0 
          0.184073 0.0601352 0 
          0.166181 0.124513 0 
          0.16846 0.12721 0 
          0.171734 0.0755536 0 
          0.188001 0.119871 0 
          0.192316 0.0462009 0 
          0.24136 0.0514855 0 
          0.227824 0.0305126 0 
          0.242752 0.0285684 0 
          0.195607 0.0287849 0 
          0.229848 0.1103 0 
          0.248099 0.0712936 0 
          0.241429 0.106943 0 
          0.170121 0.0153244 0 
          0.247013 0.11141 0 
          0.257412 0.0969937 0 
          0.265459 0.078201 0 
          0.224781 0.00551741 0 
          0.243749 0.00281496 0 
          0.312509 0.0346743 0 
          0.299257 0.0363405 0 
          0.328599 0.00959708 0 
          0.318844 0.0417211 0 
          0.308579 0.0113849 0 
          0.28488 0.0525098 0 
          0.287011 0.010649 0 
          0.325296 0.0368237 0 
          0.322734 0.0126348 0 
          0.281885 0.0348018 0 
          0.269852 0.0363055 0 
          0.3143 0.0179548 0 
          0.333936 0.0313552 0 
          0.339017 0.0437616 0 
          0.347081 0.0126451 0 
          0.351664 0.0209437 0 
          0.169703 0.0212456 0 
          0.0992865 0.0583076 0 
          0.139621 0.074407 0 
          0.216049 0.0397728 0 
          0.178746 0.0102695 0 
          0.195103 0.0690687 0 
          0.126047 0.0100742 0 
          0.180486 0.0711425 0 
          0.0978544 0.0230509 0 
          0.12789 0.00986959 0 
          0.0840738 0.010699 0 
          0.228543 0.0049685 0 
          0.207305 0.140828 0 
          0.290663 0.0795588 0 
          0.213357 0.138535 0 
          0.273869 0.089355 0 
          0.274782 0.0830018 0 
          0.274368 0.107218 0 
          0.255596 0.121815 0 
          0.264639 0.106791 0 
          0.237141 0.100173 0 
          0.245763 0.0896902 0 
          0.247674 0.0848475 0 
          0.288997 0.0679073 0 
          0.307462 0.0882202 0 
          0.332244 0.0529336 0 
          0.330315 0.0592944 0 
          0.333065 0.053404 0 
          0.333834 0.0480946 0 
          0.331674 0.0486198 0 
          0.0977509 0.0925532 0 
          0.168437 0.149602 0 
          0.122163 0.111024 0 
          0.121217 0.0869468 0 
          0.196886 0.107509 0 
          0.139979 0.147075 0 
          0.187005 0.149638 0 
          0.173949 0.130118 0 
          0.0811427 0.0807312 0 
          0.0720436 0.0912502 0 
          0.115161 0.0808993 0 
          0.000591231 0.00902206 0 
          0.0170976 0.00338759 0 
          0.0639723 0.0236154 0 
          0.0550486 0.0335236 0 
          0.0717092 0.0276063 0 
          -0.00841439 0.0241135 0 
          0.0729975 0.0479532 0 
          -0.0116198 0.00672919 0 
          -0.00616529 -0.0047674 0 
          -0.0111987 0.00146078 0 
          -0.0113121 -0.00246025 0 
          -0.0132643 -0.0036108 0 
          -0.0111038 0.00122262 0 
          -0.0114584 -0.000574195 0 
          -0.000557522 -0.00758684 0 
          -0.00162606 -0.00394417 0 
          -0.0101665 0.00757029 0 
          -0.00871983 2.86453e-05 0 
          -0.00708272 0.0023034 0 
          -0.00618801 -0.00382963 0 
          -0.0149977 -0.00696357 0 
          -0.0312316 0.0506108 0 
          -0.00612793 0.0395172 0 
          0.0256463 0.0996787 0 
          0.0231067 0.0728489 0 
          -0.0107628 0.0522966 0 
          -0.0142444 0.0613783 0 
          0.0543892 0.0880964 0 
          -0.0143784 0.0499774 0 
          0.00697567 0.0463834 0 
          -0.0210016 0.0315055 0 
          -0.0199123 0.0213428 0 
          -0.0127995 -0.0124297 0 
          -0.0208773 -0.00369963 0 
          -0.0218785 0.00413302 0 
          -0.0185918 0.00188307 0 
          -0.0198819 -0.0197433 0 
          -0.00155545 -0.0222131 0 
          -0.0290093 0.0155491 0 
          -0.0294841 0.00757681 0 
          -0.00461361 -0.0156725 0 
          -0.0226722 -0.0251355 0 
          -0.0348178 -9.16373e-05 0 
          -0.0232512 -0.0253078 0 
          -0.0271659 -0.0241741 0 
          -0.0169834 -0.0338313 0 
          -0.0386108 -0.00185302 0 
          -0.011635 -0.0376352 0 
          -0.0355583 -0.016334 0 
          0.230453 0.160993 0 
          0.239605 0.151498 0 
          0.195023 0.182061 0 
          0.245275 0.14161 0 
          0.197519 0.187474 0 
          0.22757 0.164892 0 
          0.213195 0.167413 0 
          0.224852 0.152101 0 
          0.260796 0.122716 0 
          0.290108 0.104627 0 
          0.236134 0.142688 0 
          0.261863 0.129167 0 
          0.22186 0.148123 0 
          0.214773 0.151279 0 
          0.27852 0.112707 0 
          0.112158 0.210042 0 
          0.158097 0.193712 0 
          0.0393792 0.205737 0 
          0.103833 0.229365 0 
          0.105716 0.206836 0 
          0.116676 0.192451 0 
          0.119151 0.200785 0 
          0.0775736 0.197824 0 
          0.0969762 0.176276 0 
          0.17279 0.178699 0 
          0.0101065 0.208509 0 
          0.146676 0.170521 0 
          0.10685 0.160983 0 
          0.0661803 0.149781 0 
          0.0464386 0.143321 0 
          1.61599e-05 0.203172 0 
          0.189669 0.153458 0 
          0.159259 0.202931 0 
          0.162492 0.202114 0 
          0.170923 0.207589 0 
          0.201707 0.166313 0 
          0.201949 0.179202 0 
          0.150042 0.243347 0 
          0.181292 0.210467 0 
          0.221369 0.164269 0 
          0.233491 0.143804 0 
          0.176947 0.14062 0 
          0.230104 0.131041 0 
          0.238535 0.138188 0 
          0.240551 0.121646 0 
          0.222921 0.169726 0 
          0.237907 0.148467 0 
          0.190227 0.201701 0 
          0.0907273 0.303462 0 
          0.0167331 0.297822 0 
          0.114415 0.281669 0 
          0.0583685 0.298042 0 
          0.122026 0.272797 0 
          0.00925326 0.303059 0 
          0.0480987 0.318219 0 
          0.128383 0.263962 0 
          0.136907 0.250879 0 
          -0.0378672 0.292973 0 
          0.063613 0.251956 0 
          0.128759 0.24809 0 
          0.112626 0.246151 0 
          0.0544127 0.242107 0 
          -0.0104678 0.221164 0 
          0.137645 0.234221 0 
          0.145776 0.227925 0 
          -0.027449 0.089142 0 
          -0.041053 0.0784195 0 
          -0.00134497 0.156712 0 
          -0.0245293 0.0959593 0 
          -0.00478212 0.136714 0 
          -0.0446081 0.140366 0 
          -0.0270964 0.0852415 0 
          -0.044979 0.0862908 0 
          -0.0446204 0.14608 0 
          -0.0348128 0.169582 0 
          -0.0228709 0.150911 0 
          -0.0252338 0.0921584 0 
          -0.0390864 0.156782 0 
          -0.0220611 0.165595 0 
          0.00101778 0.116933 0 
          -0.0664239 0.0739753 0 
          -0.0438958 0.0292093 0 
          -0.0590952 0.0279987 0 
          -0.0847437 0.0273346 0 
          -0.0402599 -0.016469 0 
          -0.0429419 -0.00729644 0 
          -0.060756 -0.0063673 0 
          -0.0509255 -0.0347094 0 
          -0.044794 -0.00053499 0 
          -0.0196007 -0.0494669 0 
          -0.0403414 -0.0284706 0 
          -0.0526363 -0.0373951 0 
          -0.0495946 -0.0465281 0 
          -0.027419 -0.0726569 0 
          -0.0804205 0.0240463 0 
          -0.0107566 -0.0799402 0 
          -0.0574699 -0.0480842 0 
          -0.0358998 -0.0730514 0 
          -0.0787796 -0.00276231 0 
          -0.0728384 -0.029901 0 
          -0.0490774 -0.0662415 0 
          -0.0607555 -0.0552628 0 
          -0.0702499 -0.0452297 0 
          -0.031062 -0.0877271 0 
          -0.0886444 0.0767151 0 
          -0.0461032 0.200763 0 
          -0.0846254 0.14502 0 
          -0.0281862 0.231437 0 
          -0.0851313 0.141725 0 
          -0.0850923 0.126064 0 
          -0.129983 0.0498418 0 
          -0.0929047 0.0417738 0 
          -0.0877911 0.0457392 0 
          -0.102407 0.0258781 0 
          -0.0812232 -0.0491422 0 
          -0.0746306 -0.0458319 0 
          -0.0702531 -0.0525084 0 
          -0.0646713 -0.0636525 0 
          -0.0420773 -0.117791 0 
          -0.0874457 -0.090534 0 
          -0.114543 -0.0303396 0 
          -0.0788785 -0.129193 0 
          -0.0906473 -0.125348 0 
          0.115832 -0.340684 0 
          0.10865 -0.360034 0 
          0.026256 -0.436496 0 
          0.0220445 -0.440069 0 
          0.0619232 -0.426501 0 
          0.0760842 -0.414617 0 
          0.100711 -0.350704 0 
          0.0809443 -0.400373 0 
          0.0647407 -0.435819 0 
          0.078166 -0.390949 0 
          0.0745707 -0.334154 0 
          0.0644867 -0.426745 0 
          0.0374111 -0.481832 0 
          0.00962131 -0.494636 0 
          0.0552739 -0.450411 0 
          0.0319669 -0.490166 0 
          0.0192665 -0.504356 0 
          0.156983 -0.139198 0 
          0.142671 -0.194865 0 
          0.125035 -0.125734 0 
          0.147636 -0.250761 0 
          0.051713 -0.127624 0 
          0.118873 -0.165008 0 
          0.102267 -0.274552 0 
          0.0812661 -0.261629 0 
          0.0854924 -0.314347 0 
          0.123929 -0.314052 0 
          0.0477337 -0.209248 0 
          0.0704361 -0.32339 0 
          0.0526908 -0.2737 0 
          0.0244304 -0.512168 0 
          -0.00732572 -0.407922 0 
          0.0136663 -0.514683 0 
          0.0421659 -0.23115 0 
          0.0423006 -0.250794 0 
          0.000569607 -0.156789 0 
          -0.0711391 -0.140518 0 
          0.0132516 -0.285389 0 
          0.030181 -0.196615 0 
          0.0296903 -0.289211 0 
          -0.048392 -0.12126 0 
          -0.127747 -0.137597 0 
          -0.0599274 -0.219499 0 
          -0.197143 -0.0736726 0 
          0.0768909 -0.0394571 0 
          0.0750506 -0.0794809 0 
          -0.00112215 -0.0556425 0 
          0.0977759 -0.0542583 0 
          0.0993637 -0.0100523 0 
          0.0548993 -0.0480051 0 
          0.0177404 -0.0202608 0 
          0.00561276 -0.0350943 0 
          0.0480187 -0.00923995 0 
          0.0771686 -0.0853481 0 
          0.05714 -0.0652006 0 
          0.0689983 -0.05906 0 
          0.0317384 -0.064995 0 
          0.093794 -0.0884442 0 
          0.0219656 -0.101425 0 
          -0.012093 -0.0574364 0 
          -0.0151193 -0.0500371 0 
          0.0564867 0.11973 0 
          0.05575 0.0802836 0 
          0.00780282 0.0684522 0 
          0.0499988 0.0477817 0 
          0.0633708 0.106187 0 
          0.044465 0.0794508 0 
          0.0355145 0.0549327 0 
          0.0682039 0.108046 0 
          0.0795173 0.0958533 0 
          0.111417 0.0516609 0 
          0.0370451 0.00884062 0 
          0.127331 0.0957206 0 
          0.142756 0.0516288 0 
          -0.184483 -0.0384166 0 
          -0.165245 -0.040696 0 
          -0.066861 -0.0944216 0 
          -0.123729 -0.0427808 0 
          -0.0244707 -0.059492 0 
          -0.148541 -0.0584754 0 
          -0.032258 -0.0517768 0 
          -0.185172 -0.0656995 0 
          -0.128797 -0.048175 0 
          -0.0943152 -0.0341335 0 
          -0.0323426 -0.00489727 0 
          -0.243835 -0.0519909 0 
          -0.059759 0.00360435 0 
          -0.174916 0.028715 0 
          -0.151681 0.0309579 0 
          -0.211382 0.0577109 0 
          -0.26064 0.0131487 0 
          -0.200153 0.0210727 0 
          -0.186093 0.0269713 0 
          -0.0966585 0.0119828 0 
          -0.123937 0.0312941 0 
          -0.106957 0.0812704 0 
          -0.127713 0.0896661 0 
          -0.076337 0.0141226 0 
          -0.0730602 0.00663442 0 
          -0.105967 0.0701028 0 
          -0.0983971 0.0587629 0 
          -0.0538767 0.0499453 0 
          -0.0618769 0.0294832 0 
          -0.0323495 0.0180643 0 
          -0.0280531 0.0712404 0 
          -0.0236217 0.0388947 0 
          -0.156912 0.0882862 0 
          0.0124396 0.110875 0 
          -0.0592668 -0.381617 0 
          0.00156846 -0.503086 0 