<?xml version="1.0"?>
<VTKFile type="UnstructuredGrid" version="0.1" byte_order="LittleEndian">
  <UnstructuredGrid>
    <Piece NumberOfPoints="10" NumberOfCells="10">
      <Points>
        <DataArray name="Position" type="Float64" NumberOfComponents="3" Format="ascii">
          0.298055 0.137268 0.0
          0.27985 0.200634 0.0
          0.331007 0.21157 0.0
          0.39134 0.249475 0.0
          0.428475 0.199628 0.0
          0.305822 0.259762 0.0
          0.360348 0.297786 0.0
          0.423097 0.29579 0.0
          0.479073 0.19739 0.0
          0.469378 0.255868 0.0
        </DataArray>
      </Points>
      <Cells>
        <DataArray type="Int32" Name="connectivity" Format="ascii">
          0
          1
          2
          3
          4
          5
          6
          7
          8
          9
        </DataArray>
        <DataArray type="Int32" Name="offsets" Format="ascii">
          1
          2
          3
          4
          5
          6
          7
          8
          9
          10
        </DataArray>
        <DataArray type="UInt8" Name="types" Format="ascii">
          1
          1
          1
          1
          1
          1
          1
          1
          1
          1
        </DataArray>
      </Cells>
      <PointData Scalars="scalars">
        <DataArray type="Float64" Name="velocity" NumberOfComponents="3" Format="ascii">
          -0.000378162 4.10123e-05 0 
          -0.000291637 0.000112811 0 
          -0.000278484 6.44788e-05 0 
          -0.000174242 -5.70781e-06 0 
          -0.000307507 -5.31778e-06 0 
          -0.000142813 8.26379e-05 0 
          -6.61797e-05 5.88273e-05 0 
          -7.18033e-05 -2.4874e-06 0 
          -0.000298952 -3.7289e-05 0 
          -0.000152293 -5.82901e-05 0 
        </DataArray>
        <DataArray type="Float64" Name="id" NumberOfComponents="1" Format="ascii">
          9 
          8 
          2 
          1 
          0 
          7 
          6 
          5 
          3 
          4 
        </DataArray>
        <DataArray type="Float64" Name="function" NumberOfComponents="1" Format="ascii">
          1 
          1 
          1 
          0 
          1 
          0 
          0 
          0 
          0 
          0 
        </DataArray>
        <DataArray type="Float64" Name="initial C_0" NumberOfComponents="1" Format="ascii">
          1.00838 
          0.782427 
          0.42939 
          0.00934975 
          0.46503 
          0.0139437 
          -0.00101389 
          -0.000729182 
          0.411806 
          0.00341504 
        </DataArray>
        <DataArray type="Float64" Name="initial position" NumberOfComponents="3" Format="ascii">
          0.324527 0.134397 0 
          0.300264 0.192737 0 
          0.3505 0.207056 0 
          0.403537 0.249875 0 
          0.45 0.2 0 
          0.315819 0.253977 0 
          0.364981 0.293668 0 
          0.428124 0.295964 0 
          0.5 0.2 0 
          0.480039 0.259948 0 
        </DataArray>
      </PointData>
    </Piece>
  </UnstructuredGrid>
</VTKFile>
