<?xml version="1.0"?>
<VTKFile type="UnstructuredGrid" version="0.1" byte_order="LittleEndian">
  <UnstructuredGrid>
    <Piece NumberOfPoints="10" NumberOfCells="10">
      <Points>
        <DataArray name="Position" type="Float64" NumberOfComponents="3" Format="ascii">
          0.324527 0.134397 0.0
          0.300264 0.192737 0.0
          0.3505 0.207056 0.0
          0.45 0.2 0.0
          0.403537 0.249875 0.0
          0.315819 0.253977 0.0
          0.364981 0.293668 0.0
          0.428124 0.295964 0.0
          0.5 0.2 0.0
          0.480039 0.259948 0.0
        </DataArray>
      </Points>
      <Cells>
        <DataArray type="Int32" Name="connectivity" Format="ascii">
          0
          1
          2
          3
          4
          5
          6
          7
          8
          9
        </DataArray>
        <DataArray type="Int32" Name="offsets" Format="ascii">
          1
          2
          3
          4
          5
          6
          7
          8
          9
          10
        </DataArray>
        <DataArray type="UInt8" Name="types" Format="ascii">
          1
          1
          1
          1
          1
          1
          1
          1
          1
          1
        </DataArray>
      </Cells>
      <PointData Scalars="scalars">
        <DataArray type="Float64" Name="velocity" NumberOfComponents="3" Format="ascii">
          0 0 0 
          0 0 0 
          0 0 0 
          0 0 0 
          0 0 0 
          0 0 0 
          0 0 0 
          0 0 0 
          0 0 0 
          0 0 0 
        </DataArray>
        <DataArray type="Float64" Name="id" NumberOfComponents="1" Format="ascii">
          9 
          8 
          2 
          0 
          1 
          7 
          6 
          5 
          3 
          4 
        </DataArray>
        <DataArray type="Float64" Name="function" NumberOfComponents="1" Format="ascii">
          1 
          1 
          1 
          1 
          0 
          0 
          0 
          0 
          0 
          0 
        </DataArray>
        <DataArray type="Float64" Name="initial C_0" NumberOfComponents="1" Format="ascii">
          1.00838 
          0.782427 
          0.42939 
          0.46503 
          0.00934975 
          0.0139437 
          -0.00101389 
          -0.000729182 
          0.411806 
          0.00341504 
        </DataArray>
        <DataArray type="Float64" Name="initial position" NumberOfComponents="3" Format="ascii">
          0.324527 0.134397 0 
          0.300264 0.192737 0 
          0.3505 0.207056 0 
          0.45 0.2 0 
          0.403537 0.249875 0 
          0.315819 0.253977 0 
          0.364981 0.293668 0 
          0.428124 0.295964 0 
          0.5 0.2 0 
          0.480039 0.259948 0 
        </DataArray>
      </PointData>
    </Piece>
  </UnstructuredGrid>
</VTKFile>
