<?xml version="1.0"?>
<VTKFile type="UnstructuredGrid" version="0.1" byte_order="LittleEndian">
  <UnstructuredGrid>
    <Piece NumberOfPoints="11" NumberOfCells="11">
      <Points>
        <DataArray name="Position" type="Float64" NumberOfComponents="3" Format="ascii">
          0.223712 0.203624 0.0
          0.253265 0.105876 0.0
          0.342994 0.0537979 0.0
          0.350645 0.152043 0.0
          0.348243 0.240592 0.0
          0.419402 0.197739 0.0
          0.266875 0.29435 0.0
          0.348694 0.345087 0.0
          0.441906 0.339558 0.0
          0.522452 0.192282 0.0
          0.510278 0.280396 0.0
        </DataArray>
      </Points>
      <Cells>
        <DataArray type="Int32" Name="connectivity" Format="ascii">
          0
          1
          2
          3
          4
          5
          6
          7
          8
          9
          10
        </DataArray>
        <DataArray type="Int32" Name="offsets" Format="ascii">
          1
          2
          3
          4
          5
          6
          7
          8
          9
          10
          11
        </DataArray>
        <DataArray type="UInt8" Name="types" Format="ascii">
          1
          1
          1
          1
          1
          1
          1
          1
          1
          1
          1
        </DataArray>
      </Cells>
      <PointData Scalars="scalars">
        <DataArray type="Float64" Name="id" NumberOfComponents="1" Format="ascii">
          8
          9
          10
          2
          1
          0
          7
          6
          5
          3
          4
        </DataArray>
        <DataArray type="Float64" Name="function" NumberOfComponents="1" Format="ascii">
          1 
          1 
          1 
          1 
          0 
          1 
          0 
          0 
          0 
          0 
          0 
        </DataArray>
        <DataArray type="Float64" Name="initial C_0" NumberOfComponents="1" Format="ascii">
          0.893133 
          0.999964 
          1 
          1.00279 
          0.0349546 
          0.46503 
          0.00105949 
          2.73509e-06 
          5.88187e-07 
          0.360367 
          -0.000258542 
        </DataArray>
        <DataArray type="Float64" Name="initial position" NumberOfComponents="3" Format="ascii">
          0.250396 0.189106 0 
          0.28679 0.101595 0 
          0.368381 0.0533705 0 
          0.38946 0.151123 0 
          0.368591 0.238904 0 
          0.45 0.2 0 
          0.273728 0.280966 0 
          0.347471 0.340502 0 
          0.442185 0.343946 0 
          0.55 0.2 0 
          0.520058 0.289923 0 
        </DataArray>
      </PointData>
    </Piece>
  </UnstructuredGrid>
</VTKFile>
