<?xml version="1.0"?>
<VTKFile type="UnstructuredGrid" version="0.1" byte_order="LittleEndian">
  <UnstructuredGrid>
    <Piece NumberOfPoints="12" NumberOfCells="12">
      <Points>
        <DataArray name="Position" type="Float64" NumberOfComponents="3" Format="ascii">
          0.0877583 0.0479426 0.0
          0.0785887 0.061837 0.0
          0.0540302 0.0841471 0.0
          0.0672412 0.0740177 0.0
          0.219507 0.204492 0.0
          0.206306 0.217803 0.0
          0.192299 0.230263 0.0
          0.177542 0.241824 0.0
          0.263275 0.143828 0.0
          0.253777 0.159991 0.0
          0.243289 0.175529 0.0
          0.23185 0.190382 0.0
        </DataArray>
      </Points>
      <Cells>
        <DataArray type="Int32" Name="connectivity" Format="ascii">
          0
          1
          2
          3
          4
          5
          6
          7
          8
          9
          10
          11
        </DataArray>
        <DataArray type="Int32" Name="offsets" Format="ascii">
          1
          2
          3
          4
          5
          6
          7
          8
          9
          10
          11
          12
        </DataArray>
        <DataArray type="UInt8" Name="types" Format="ascii">
          1
          1
          1
          1
          1
          1
          1
          1
          1
          1
          1
          1
        </DataArray>
      </Cells>
      <PointData Scalars="scalars">
        <DataArray type="Float64" Name="velocity" NumberOfComponents="3" Format="ascii">
          0 0 0 
          0 0 0 
          0 0 0 
          0 0 0 
          0 0 0 
          0 0 0 
          0 0 0 
          0 0 0 
          0 0 0 
          0 0 0 
          0 0 0 
          0 0 0 
        </DataArray>
        <DataArray type="Float64" Name="id" NumberOfComponents="1" Format="ascii">
          0 
          1 
          3 
          2 
          8 
          9 
          10 
          11 
          4 
          5 
          6 
          7 
        </DataArray>
        <DataArray type="Float64" Name="function" NumberOfComponents="1" Format="ascii">
          1 
          1 
          1 
          1 
          1 
          0 
          0 
          0 
          1 
          1 
          1 
          1 
        </DataArray>
        <DataArray type="Float64" Name="initial C_0" NumberOfComponents="1" Format="ascii">
          1 
          1 
          1.00001 
          1.00001 
          0.622428 
          0.42561 
          0.26673 
          0.130715 
          1.00609 
          0.991678 
          0.963215 
          0.874947 
        </DataArray>
        <DataArray type="Float64" Name="initial position" NumberOfComponents="3" Format="ascii">
          0.0877583 0.0479426 0 
          0.0785887 0.061837 0 
          0.0540302 0.0841471 0 
          0.0672412 0.0740177 0 
          0.219507 0.204492 0 
          0.206306 0.217803 0 
          0.192299 0.230263 0 
          0.177542 0.241824 0 
          0.263275 0.143828 0 
          0.253777 0.159991 0 
          0.243289 0.175529 0 
          0.23185 0.190382 0 
        </DataArray>
      </PointData>
    </Piece>
  </UnstructuredGrid>
</VTKFile>
