<?xml version="1.0"?>
<VTKFile type="UnstructuredGrid" version="0.1" byte_order="LittleEndian">
  <UnstructuredGrid>
    <Piece NumberOfPoints="11" NumberOfCells="11">
      <Points>
        <DataArray name="Position" type="Float64" NumberOfComponents="3" Format="ascii">
          0.295054 0.0928252 0.0
          0.254067 0.165306 0.0
          0.25805 0.248478 0.0
          0.3505 0.207056 0.0
          0.45 0.2 0.0
          0.403537 0.249875 0.0
          0.305774 0.316711 0.0
          0.382534 0.34898 0.0
          0.55 0.2 0.0
          0.526889 0.279995 0.0
          0.464676 0.33534 0.0
        </DataArray>
      </Points>
      <Cells>
        <DataArray type="Int32" Name="connectivity" Format="ascii">
          0
          1
          2
          3
          4
          5
          6
          7
          8
          9
          10
        </DataArray>
        <DataArray type="Int32" Name="offsets" Format="ascii">
          1
          2
          3
          4
          5
          6
          7
          8
          9
          10
          11
        </DataArray>
        <DataArray type="UInt8" Name="types" Format="ascii">
          1
          1
          1
          1
          1
          1
          1
          1
          1
          1
          1
        </DataArray>
      </Cells>
      <PointData Scalars="scalars">
        <DataArray type="Float64" Name="velocity" NumberOfComponents="3" Format="ascii">
          0 0 0 
          0 0 0 
          0 0 0 
          0 0 0 
          0 0 0 
          0 0 0 
          0 0 0 
          0 0 0 
          0 0 0 
          0 0 0 
          0 0 0 
        </DataArray>
        <DataArray type="Float64" Name="id" NumberOfComponents="1" Format="ascii">
          10 
          9 
          8 
          2 
          0 
          1 
          7 
          6 
          3 
          4 
          5 
        </DataArray>
        <DataArray type="Float64" Name="function" NumberOfComponents="1" Format="ascii">
          1 
          1 
          0 
          1 
          1 
          0 
          0 
          0 
          0 
          0 
          0 
        </DataArray>
        <DataArray type="Float64" Name="initial C_0" NumberOfComponents="1" Format="ascii">
          0.999994 
          0.983112 
          0.0336214 
          0.42939 
          0.46503 
          0.00934975 
          2.87369e-05 
          -5.78121e-07 
          0.360367 
          0.000270852 
          2.61026e-06 
        </DataArray>
        <DataArray type="Float64" Name="initial position" NumberOfComponents="3" Format="ascii">
          0.295054 0.0928252 0 
          0.254067 0.165306 0 
          0.25805 0.248478 0 
          0.3505 0.207056 0 
          0.45 0.2 0 
          0.403537 0.249875 0 
          0.305774 0.316711 0 
          0.382534 0.34898 0 
          0.55 0.2 0 
          0.526889 0.279995 0 
          0.464676 0.33534 0 
        </DataArray>
      </PointData>
    </Piece>
  </UnstructuredGrid>
</VTKFile>
