<?xml version="1.0"?>
<VTKFile type="UnstructuredGrid" version="0.1" byte_order="LittleEndian">
  <UnstructuredGrid>
    <Piece NumberOfPoints="12" NumberOfCells="12">
      <Points>
        <DataArray name="Position" type="Float64" NumberOfComponents="3" Format="ascii">
          0.082142 0.0496176 0.0
          0.0490227 0.0891417 0.0
          0.061443 0.0780151 0.0
          0.07255 0.0646708 0.0
          0.223195 0.185478 0.0
          0.204687 0.216594 0.0
          0.194047 0.230454 0.0
          0.182465 0.243471 0.0
          0.214383 0.201968 0.0
          0.239837 0.149345 0.0
          0.231677 0.167396 0.0
          0.169947 0.255578 0.0
        </DataArray>
      </Points>
      <Cells>
        <DataArray type="Int32" Name="connectivity" Format="ascii">
          0
          1
          2
          3
          4
          5
          6
          7
          8
          9
          10
          11
        </DataArray>
        <DataArray type="Int32" Name="offsets" Format="ascii">
          1
          2
          3
          4
          5
          6
          7
          8
          9
          10
          11
          12
        </DataArray>
        <DataArray type="UInt8" Name="types" Format="ascii">
          1
          1
          1
          1
          1
          1
          1
          1
          1
          1
          1
          1
        </DataArray>
      </Cells>
      <PointData Scalars="scalars">
        <DataArray type="Float64" Name="velocity" NumberOfComponents="3" Format="ascii">
          -8.02322e-05 2.39296e-05 0 
          -7.15368e-05 7.13515e-05 0 
          -8.28314e-05 5.7106e-05 0 
          -8.62669e-05 4.04837e-05 0 
          -0.00028705 0.000142127 0 
          -0.000211704 0.000172892 0 
          -0.000175119 0.00018073 0 
          -0.000140484 0.000188684 0 
          -0.000249531 0.000165517 0 
          -0.00033482 7.88158e-05 0 
          -0.000315715 0.000105795 0 
          -0.000108491 0.000196485 0 
        </DataArray>
        <DataArray type="Float64" Name="id" NumberOfComponents="1" Format="ascii">
          0 
          3 
          2 
          1 
          6 
          8 
          9 
          10 
          7 
          4 
          5 
          11 
        </DataArray>
        <DataArray type="Float64" Name="function" NumberOfComponents="1" Format="ascii">
          1 
          1 
          1 
          1 
          1 
          1 
          0 
          0 
          1 
          1 
          1 
          0 
        </DataArray>
        <DataArray type="Float64" Name="initial C_0" NumberOfComponents="1" Format="ascii">
          1 
          1.00001 
          1.00001 
          1 
          0.963215 
          0.622428 
          0.42561 
          0.26673 
          0.874947 
          1.00609 
          0.991678 
          0.130715 
        </DataArray>
        <DataArray type="Float64" Name="initial position" NumberOfComponents="3" Format="ascii">
          0.0877583 0.0479426 0 
          0.0540302 0.0841471 0 
          0.0672412 0.0740177 0 
          0.0785887 0.061837 0 
          0.243289 0.175529 0 
          0.219507 0.204492 0 
          0.206306 0.217803 0 
          0.192299 0.230263 0 
          0.23185 0.190382 0 
          0.263275 0.143828 0 
          0.253777 0.159991 0 
          0.177542 0.241824 0 
        </DataArray>
      </PointData>
    </Piece>
  </UnstructuredGrid>
</VTKFile>
