<?xml version="1.0"?>
<VTKFile byte_order="LittleEndian" type="UnstructuredGrid" version="0.1">
<UnstructuredGrid>
<Piece NumberOfCells="100" NumberOfPoints="121">
<PointData>
<DataArray Name="Depth" format="ascii" type="Float64">
750000 750000 750000 750000 750000 750000 750000 750000 750000 750000 750000 675000 675000 675000 675000 675000 675000 675000 675000 675000 675000 675000 600000 600000 600000 600000 600000 600000 600000 600000 600000 600000 600000 525000 525000 525000 525000 525000 525000 525000 525000 525000 525000 525000 450000 450000 450000 450000 450000 450000 450000 450000 450000 450000 450000 375000 375000 375000 375000 375000 375000 375000 375000 375000 375000 375000 300000 300000 300000 300000 300000 300000 300000 300000 300000 300000 300000 225000 225000 225000 225000 225000 225000 225000 225000 225000 225000 225000 150000 150000 150000 150000 150000 150000 150000 150000 150000 150000 150000 75000 75000 75000 75000 75000 75000 75000 75000 75000 75000 75000 0 0 0 0 0 0 0 0 0 0 0 
</DataArray>
<DataArray Name="Temperature" format="ascii" type="Float64">
1700 1700 1700 1700 1800 1800 1800 1700 1700 1700 1700 1688.55 1688.55 1688.55 1688.55 1688.55 1800 1800 1688.55 1688.55 1688.55 1688.55 1677.1 1677.1 1677.1 1677.1 1677.1 1800 1800 1677.1 1677.1 1677.1 1677.1 1665.65 1665.65 1665.65 1665.65 1665.65 1800 1800 1800 1665.65 1665.65 1665.65 1654.2 1654.2 1654.2 1654.2 1654.2 1654.2 1800 1800 1654.2 1654.2 1654.2 1642.75 1642.75 1642.75 1642.75 1642.75 1642.75 1800 1800 1642.75 1642.75 1642.75 1631.3 1631.3 1631.3 1631.3 1631.3 1631.3 1631.3 1800 1631.3 1631.3 1631.3 1619.85 1619.85 1619.85 1619.85 1619.85 1619.85 1619.85 1800 1619.85 1619.85 1619.85 1608.4 1608.4 1608.4 1608.4 1608.4 1800 1800 1608.4 1608.4 1608.4 1608.4 1633.3 1633.3 1633.3 1633.3 1800 1800 1633.3 1633.3 1633.3 1633.3 1633.3 1600 1600 1600 1600 1800 1600 1600 1600 1600 1600 1600 
</DataArray>
<DataArray Name="Tag" format="ascii" type="Float64">
0 0 0 0 1 1 1 0 0 0 0 0 0 0 0 0 1 1 0 0 0 0 0 0 0 0 0 1 1 0 0 0 0 0 0 0 0 0 1 1 1 0 0 0 0 0 0 0 0 0 1 1 0 0 0 0 0 0 0 0 0 1 1 0 0 0 0 0 0 0 0 0 0 1 0 0 0 0 0 0 0 0 0 0 1 0 0 0 0 0 0 0 0 1 1 0 0 0 0 0 0 0 0 1 1 0 0 0 0 0 0 0 0 0 1 0 0 0 0 0 0 
</DataArray>
</PointData>
<CellData>
</CellData>
<Points>
<DataArray NumberOfComponents="3" format="ascii" type="Float64">
0 0 0 75000 0 0 150000 0 0 225000 0 0 300000 0 0 375000 0 0 450000 0 0 525000 0 0 600000 0 0 675000 0 0 750000 0 0 0 75000 0 75000 75000 0 150000 75000 0 225000 75000 0 300000 75000 0 375000 75000 0 450000 75000 0 525000 75000 0 600000 75000 0 675000 75000 0 750000 75000 0 0 150000 0 75000 150000 0 150000 150000 0 225000 150000 0 300000 150000 0 375000 150000 0 450000 150000 0 525000 150000 0 600000 150000 0 675000 150000 0 750000 150000 0 0 225000 0 75000 225000 0 150000 225000 0 225000 225000 0 300000 225000 0 375000 225000 0 450000 225000 0 525000 225000 0 600000 225000 0 675000 225000 0 750000 225000 0 0 300000 0 75000 300000 0 150000 300000 0 225000 300000 0 300000 300000 0 375000 300000 0 450000 300000 0 525000 300000 0 600000 300000 0 675000 300000 0 750000 300000 0 0 375000 0 75000 375000 0 150000 375000 0 225000 375000 0 300000 375000 0 375000 375000 0 450000 375000 0 525000 375000 0 600000 375000 0 675000 375000 0 750000 375000 0 0 450000 0 75000 450000 0 150000 450000 0 225000 450000 0 300000 450000 0 375000 450000 0 450000 450000 0 525000 450000 0 600000 450000 0 675000 450000 0 750000 450000 0 0 525000 0 75000 525000 0 150000 525000 0 225000 525000 0 300000 525000 0 375000 525000 0 450000 525000 0 525000 525000 0 600000 525000 0 675000 525000 0 750000 525000 0 0 600000 0 75000 600000 0 150000 600000 0 225000 600000 0 300000 600000 0 375000 600000 0 450000 600000 0 525000 600000 0 600000 600000 0 675000 600000 0 750000 600000 0 0 675000 0 75000 675000 0 150000 675000 0 225000 675000 0 300000 675000 0 375000 675000 0 450000 675000 0 525000 675000 0 600000 675000 0 675000 675000 0 750000 675000 0 0 750000 0 75000 750000 0 150000 750000 0 225000 750000 0 300000 750000 0 375000 750000 0 450000 750000 0 525000 750000 0 600000 750000 0 675000 750000 0 750000 750000 0 
</DataArray>
</Points>
<Cells>
<DataArray Name="connectivity" format="ascii" type="Int64">
0 1 12 11 1 2 13 12 2 3 14 13 3 4 15 14 4 5 16 15 5 6 17 16 6 7 18 17 7 8 19 18 8 9 20 19 9 10 21 20 11 12 23 22 12 13 24 23 13 14 25 24 14 15 26 25 15 16 27 26 16 17 28 27 17 18 29 28 18 19 30 29 19 20 31 30 20 21 32 31 22 23 34 33 23 24 35 34 24 25 36 35 25 26 37 36 26 27 38 37 27 28 39 38 28 29 40 39 29 30 41 40 30 31 42 41 31 32 43 42 33 34 45 44 34 35 46 45 35 36 47 46 36 37 48 47 37 38 49 48 38 39 50 49 39 40 51 50 40 41 52 51 41 42 53 52 42 43 54 53 44 45 56 55 45 46 57 56 46 47 58 57 47 48 59 58 48 49 60 59 49 50 61 60 50 51 62 61 51 52 63 62 52 53 64 63 53 54 65 64 55 56 67 66 56 57 68 67 57 58 69 68 58 59 70 69 59 60 71 70 60 61 72 71 61 62 73 72 62 63 74 73 63 64 75 74 64 65 76 75 66 67 78 77 67 68 79 78 68 69 80 79 69 70 81 80 70 71 82 81 71 72 83 82 72 73 84 83 73 74 85 84 74 75 86 85 75 76 87 86 77 78 89 88 78 79 90 89 79 80 91 90 80 81 92 91 81 82 93 92 82 83 94 93 83 84 95 94 84 85 96 95 85 86 97 96 86 87 98 97 88 89 100 99 89 90 101 100 90 91 102 101 91 92 103 102 92 93 104 103 93 94 105 104 94 95 106 105 95 96 107 106 96 97 108 107 97 98 109 108 99 100 111 110 100 101 112 111 101 102 113 112 102 103 114 113 103 104 115 114 104 105 116 115 105 106 117 116 106 107 118 117 107 108 119 118 108 109 120 119 
</DataArray>
<DataArray Name="offsets" format="ascii" type="Int64">
4 8 12 16 20 24 28 32 36 40 44 48 52 56 60 64 68 72 76 80 84 88 92 96 100 104 108 112 116 120 124 128 132 136 140 144 148 152 156 160 164 168 172 176 180 184 188 192 196 200 204 208 212 216 220 224 228 232 236 240 244 248 252 256 260 264 268 272 276 280 284 288 292 296 300 304 308 312 316 320 324 328 332 336 340 344 348 352 356 360 364 368 372 376 380 384 388 392 396 400 
</DataArray>
<DataArray Name="types" format="ascii" type="Int8">
9 9 9 9 9 9 9 9 9 9 9 9 9 9 9 9 9 9 9 9 9 9 9 9 9 9 9 9 9 9 9 9 9 9 9 9 9 9 9 9 9 9 9 9 9 9 9 9 9 9 9 9 9 9 9 9 9 9 9 9 9 9 9 9 9 9 9 9 9 9 9 9 9 9 9 9 9 9 9 9 9 9 9 9 9 9 9 9 9 9 9 9 9 9 9 9 9 9 9 9 
</DataArray>
</Cells>
</Piece>
</UnstructuredGrid>
</VTKFile>
