<?xml version="1.0"?>
<VTKFile byte_order="LittleEndian" type="UnstructuredGrid" version="0.1">
<UnstructuredGrid>
<Piece NumberOfCells="1280" NumberOfPoints="1440">
<PointData>
<DataArray Name="Depth" format="ascii" type="Float64">
2e+06 2e+06 2e+06 2e+06 2e+06 2e+06 2e+06 2e+06 2e+06 2e+06 2e+06 2e+06 2e+06 2e+06 2e+06 2e+06 2e+06 2e+06 2e+06 2e+06 2e+06 2e+06 2e+06 2e+06 2e+06 2e+06 2e+06 2e+06 2e+06 2e+06 2e+06 2e+06 2e+06 2e+06 2e+06 2e+06 2e+06 2e+06 2e+06 2e+06 2e+06 2e+06 2e+06 2e+06 2e+06 2e+06 2e+06 2e+06 2e+06 2e+06 2e+06 2e+06 2e+06 2e+06 2e+06 2e+06 2e+06 2e+06 2e+06 2e+06 2e+06 2e+06 2e+06 2e+06 2e+06 2e+06 2e+06 2e+06 2e+06 2e+06 2e+06 2e+06 2e+06 2e+06 2e+06 2e+06 2e+06 2e+06 2e+06 2e+06 2e+06 2e+06 2e+06 2e+06 2e+06 2e+06 2e+06 2e+06 2e+06 2e+06 2e+06 2e+06 2e+06 2e+06 2e+06 2e+06 2e+06 2e+06 2e+06 2e+06 2e+06 2e+06 2e+06 2e+06 2e+06 2e+06 2e+06 2e+06 2e+06 2e+06 2e+06 2e+06 2e+06 2e+06 2e+06 2e+06 2e+06 2e+06 2e+06 2e+06 2e+06 2e+06 2e+06 2e+06 2e+06 2e+06 2e+06 2e+06 2e+06 2e+06 2e+06 2e+06 2e+06 2e+06 2e+06 2e+06 2e+06 2e+06 2e+06 2e+06 2e+06 2e+06 2e+06 2e+06 2e+06 2e+06 2e+06 2e+06 2e+06 2e+06 2e+06 2e+06 2e+06 2e+06 2e+06 2e+06 2e+06 2e+06 2e+06 2e+06 1.75e+06 1.75e+06 1.75e+06 1.75e+06 1.75e+06 1.75e+06 1.75e+06 1.75e+06 1.75e+06 1.75e+06 1.75e+06 1.75e+06 1.75e+06 1.75e+06 1.75e+06 1.75e+06 1.75e+06 1.75e+06 1.75e+06 1.75e+06 1.75e+06 1.75e+06 1.75e+06 1.75e+06 1.75e+06 1.75e+06 1.75e+06 1.75e+06 1.75e+06 1.75e+06 1.75e+06 1.75e+06 1.75e+06 1.75e+06 1.75e+06 1.75e+06 1.75e+06 1.75e+06 1.75e+06 1.75e+06 1.75e+06 1.75e+06 1.75e+06 1.75e+06 1.75e+06 1.75e+06 1.75e+06 1.75e+06 1.75e+06 1.75e+06 1.75e+06 1.75e+06 1.75e+06 1.75e+06 1.75e+06 1.75e+06 1.75e+06 1.75e+06 1.75e+06 1.75e+06 1.75e+06 1.75e+06 1.75e+06 1.75e+06 1.75e+06 1.75e+06 1.75e+06 1.75e+06 1.75e+06 1.75e+06 1.75e+06 1.75e+06 1.75e+06 1.75e+06 1.75e+06 1.75e+06 1.75e+06 1.75e+06 1.75e+06 1.75e+06 1.75e+06 1.75e+06 1.75e+06 1.75e+06 1.75e+06 1.75e+06 1.75e+06 1.75e+06 1.75e+06 1.75e+06 1.75e+06 1.75e+06 1.75e+06 1.75e+06 1.75e+06 1.75e+06 1.75e+06 1.75e+06 1.75e+06 1.75e+06 1.75e+06 1.75e+06 1.75e+06 1.75e+06 1.75e+06 1.75e+06 1.75e+06 1.75e+06 1.75e+06 1.75e+06 1.75e+06 1.75e+06 1.75e+06 1.75e+06 1.75e+06 1.75e+06 1.75e+06 1.75e+06 1.75e+06 1.75e+06 1.75e+06 1.75e+06 1.75e+06 1.75e+06 1.75e+06 1.75e+06 1.75e+06 1.75e+06 1.75e+06 1.75e+06 1.75e+06 1.75e+06 1.75e+06 1.75e+06 1.75e+06 1.75e+06 1.75e+06 1.75e+06 1.75e+06 1.75e+06 1.75e+06 1.75e+06 1.75e+06 1.75e+06 1.75e+06 1.75e+06 1.75e+06 1.75e+06 1.75e+06 1.75e+06 1.75e+06 1.75e+06 1.75e+06 1.75e+06 1.75e+06 1.75e+06 1.75e+06 1.75e+06 1.75e+06 1.75e+06 1.5e+06 1.5e+06 1.5e+06 1.5e+06 1.5e+06 1.5e+06 1.5e+06 1.5e+06 1.5e+06 1.5e+06 1.5e+06 1.5e+06 1.5e+06 1.5e+06 1.5e+06 1.5e+06 1.5e+06 1.5e+06 1.5e+06 1.5e+06 1.5e+06 1.5e+06 1.5e+06 1.5e+06 1.5e+06 1.5e+06 1.5e+06 1.5e+06 1.5e+06 1.5e+06 1.5e+06 1.5e+06 1.5e+06 1.5e+06 1.5e+06 1.5e+06 1.5e+06 1.5e+06 1.5e+06 1.5e+06 1.5e+06 1.5e+06 1.5e+06 1.5e+06 1.5e+06 1.5e+06 1.5e+06 1.5e+06 1.5e+06 1.5e+06 1.5e+06 1.5e+06 1.5e+06 1.5e+06 1.5e+06 1.5e+06 1.5e+06 1.5e+06 1.5e+06 1.5e+06 1.5e+06 1.5e+06 1.5e+06 1.5e+06 1.5e+06 1.5e+06 1.5e+06 1.5e+06 1.5e+06 1.5e+06 1.5e+06 1.5e+06 1.5e+06 1.5e+06 1.5e+06 1.5e+06 1.5e+06 1.5e+06 1.5e+06 1.5e+06 1.5e+06 1.5e+06 1.5e+06 1.5e+06 1.5e+06 1.5e+06 1.5e+06 1.5e+06 1.5e+06 1.5e+06 1.5e+06 1.5e+06 1.5e+06 1.5e+06 1.5e+06 1.5e+06 1.5e+06 1.5e+06 1.5e+06 1.5e+06 1.5e+06 1.5e+06 1.5e+06 1.5e+06 1.5e+06 1.5e+06 1.5e+06 1.5e+06 1.5e+06 1.5e+06 1.5e+06 1.5e+06 1.5e+06 1.5e+06 1.5e+06 1.5e+06 1.5e+06 1.5e+06 1.5e+06 1.5e+06 1.5e+06 1.5e+06 1.5e+06 1.5e+06 1.5e+06 1.5e+06 1.5e+06 1.5e+06 1.5e+06 1.5e+06 1.5e+06 1.5e+06 1.5e+06 1.5e+06 1.5e+06 1.5e+06 1.5e+06 1.5e+06 1.5e+06 1.5e+06 1.5e+06 1.5e+06 1.5e+06 1.5e+06 1.5e+06 1.5e+06 1.5e+06 1.5e+06 1.5e+06 1.5e+06 1.5e+06 1.5e+06 1.5e+06 1.5e+06 1.5e+06 1.5e+06 1.5e+06 1.5e+06 1.5e+06 1.5e+06 1.25e+06 1.25e+06 1.25e+06 1.25e+06 1.25e+06 1.25e+06 1.25e+06 1.25e+06 1.25e+06 1.25e+06 1.25e+06 1.25e+06 1.25e+06 1.25e+06 1.25e+06 1.25e+06 1.25e+06 1.25e+06 1.25e+06 1.25e+06 1.25e+06 1.25e+06 1.25e+06 1.25e+06 1.25e+06 1.25e+06 1.25e+06 1.25e+06 1.25e+06 1.25e+06 1.25e+06 1.25e+06 1.25e+06 1.25e+06 1.25e+06 1.25e+06 1.25e+06 1.25e+06 1.25e+06 1.25e+06 1.25e+06 1.25e+06 1.25e+06 1.25e+06 1.25e+06 1.25e+06 1.25e+06 1.25e+06 1.25e+06 1.25e+06 1.25e+06 1.25e+06 1.25e+06 1.25e+06 1.25e+06 1.25e+06 1.25e+06 1.25e+06 1.25e+06 1.25e+06 1.25e+06 1.25e+06 1.25e+06 1.25e+06 1.25e+06 1.25e+06 1.25e+06 1.25e+06 1.25e+06 1.25e+06 1.25e+06 1.25e+06 1.25e+06 1.25e+06 1.25e+06 1.25e+06 1.25e+06 1.25e+06 1.25e+06 1.25e+06 1.25e+06 1.25e+06 1.25e+06 1.25e+06 1.25e+06 1.25e+06 1.25e+06 1.25e+06 1.25e+06 1.25e+06 1.25e+06 1.25e+06 1.25e+06 1.25e+06 1.25e+06 1.25e+06 1.25e+06 1.25e+06 1.25e+06 1.25e+06 1.25e+06 1.25e+06 1.25e+06 1.25e+06 1.25e+06 1.25e+06 1.25e+06 1.25e+06 1.25e+06 1.25e+06 1.25e+06 1.25e+06 1.25e+06 1.25e+06 1.25e+06 1.25e+06 1.25e+06 1.25e+06 1.25e+06 1.25e+06 1.25e+06 1.25e+06 1.25e+06 1.25e+06 1.25e+06 1.25e+06 1.25e+06 1.25e+06 1.25e+06 1.25e+06 1.25e+06 1.25e+06 1.25e+06 1.25e+06 1.25e+06 1.25e+06 1.25e+06 1.25e+06 1.25e+06 1.25e+06 1.25e+06 1.25e+06 1.25e+06 1.25e+06 1.25e+06 1.25e+06 1.25e+06 1.25e+06 1.25e+06 1.25e+06 1.25e+06 1.25e+06 1.25e+06 1.25e+06 1.25e+06 1.25e+06 1.25e+06 1.25e+06 1.25e+06 1.25e+06 1e+06 1e+06 1e+06 1e+06 1e+06 1e+06 1e+06 1e+06 1e+06 1e+06 1e+06 1e+06 1e+06 1e+06 1e+06 1e+06 1e+06 1e+06 1e+06 1e+06 1e+06 1e+06 1e+06 1e+06 1e+06 1e+06 1e+06 1e+06 1e+06 1e+06 1e+06 1e+06 1e+06 1e+06 1e+06 1e+06 1e+06 1e+06 1e+06 1e+06 1e+06 1e+06 1e+06 1e+06 1e+06 1e+06 1e+06 1e+06 1e+06 1e+06 1e+06 1e+06 1e+06 1e+06 1e+06 1e+06 1e+06 1e+06 1e+06 1e+06 1e+06 1e+06 1e+06 1e+06 1e+06 1e+06 1e+06 1e+06 1e+06 1e+06 1e+06 1e+06 1e+06 1e+06 1e+06 1e+06 1e+06 1e+06 1e+06 1e+06 1e+06 1e+06 1e+06 1e+06 1e+06 1e+06 1e+06 1e+06 1e+06 1e+06 1e+06 1e+06 1e+06 1e+06 1e+06 1e+06 1e+06 1e+06 1e+06 1e+06 1e+06 1e+06 1e+06 1e+06 1e+06 1e+06 1e+06 1e+06 1e+06 1e+06 1e+06 1e+06 1e+06 1e+06 1e+06 1e+06 1e+06 1e+06 1e+06 1e+06 1e+06 1e+06 1e+06 1e+06 1e+06 1e+06 1e+06 1e+06 1e+06 1e+06 1e+06 1e+06 1e+06 1e+06 1e+06 1e+06 1e+06 1e+06 1e+06 1e+06 1e+06 1e+06 1e+06 1e+06 1e+06 1e+06 1e+06 1e+06 1e+06 1e+06 1e+06 1e+06 1e+06 1e+06 1e+06 1e+06 1e+06 1e+06 1e+06 1e+06 750000 750000 750000 750000 750000 750000 750000 750000 750000 750000 750000 750000 750000 750000 750000 750000 750000 750000 750000 750000 750000 750000 750000 750000 750000 750000 750000 750000 750000 750000 750000 750000 750000 750000 750000 750000 750000 750000 750000 750000 750000 750000 750000 750000 750000 750000 750000 750000 750000 750000 750000 750000 750000 750000 750000 750000 750000 750000 750000 750000 750000 750000 750000 750000 750000 750000 750000 750000 750000 750000 750000 750000 750000 750000 750000 750000 750000 750000 750000 750000 750000 750000 750000 750000 750000 750000 750000 750000 750000 750000 750000 750000 750000 750000 750000 750000 750000 750000 750000 750000 750000 750000 750000 750000 750000 750000 750000 750000 750000 750000 750000 750000 750000 750000 750000 750000 750000 750000 750000 750000 750000 750000 750000 750000 750000 750000 750000 750000 750000 750000 750000 750000 750000 750000 750000 750000 750000 750000 750000 750000 750000 750000 750000 750000 750000 750000 750000 750000 750000 750000 750000 750000 750000 750000 750000 750000 750000 750000 750000 750000 500000 500000 500000 500000 500000 500000 500000 500000 500000 500000 500000 500000 500000 500000 500000 500000 500000 500000 500000 500000 500000 500000 500000 500000 500000 500000 500000 500000 500000 500000 500000 500000 500000 500000 500000 500000 500000 500000 500000 500000 500000 500000 500000 500000 500000 500000 500000 500000 500000 500000 500000 500000 500000 500000 500000 500000 500000 500000 500000 500000 500000 500000 500000 500000 500000 500000 500000 500000 500000 500000 500000 500000 500000 500000 500000 500000 500000 500000 500000 500000 500000 500000 500000 500000 500000 500000 500000 500000 500000 500000 500000 500000 500000 500000 500000 500000 500000 500000 500000 500000 500000 500000 500000 500000 500000 500000 500000 500000 500000 500000 500000 500000 500000 500000 500000 500000 500000 500000 500000 500000 500000 500000 500000 500000 500000 500000 500000 500000 500000 500000 500000 500000 500000 500000 500000 500000 500000 500000 500000 500000 500000 500000 500000 500000 500000 500000 500000 500000 500000 500000 500000 500000 500000 500000 500000 500000 500000 500000 500000 500000 250000 250000 250000 250000 250000 250000 250000 250000 250000 250000 250000 250000 250000 250000 250000 250000 250000 250000 250000 250000 250000 250000 250000 250000 250000 250000 250000 250000 250000 250000 250000 250000 250000 250000 250000 250000 250000 250000 250000 250000 250000 250000 250000 250000 250000 250000 250000 250000 250000 250000 250000 250000 250000 250000 250000 250000 250000 250000 250000 250000 250000 250000 250000 250000 250000 250000 250000 250000 250000 250000 250000 250000 250000 250000 250000 250000 250000 250000 250000 250000 250000 250000 250000 250000 250000 250000 250000 250000 250000 250000 250000 250000 250000 250000 250000 250000 250000 250000 250000 250000 250000 250000 250000 250000 250000 250000 250000 250000 250000 250000 250000 250000 250000 250000 250000 250000 250000 250000 250000 250000 250000 250000 250000 250000 250000 250000 250000 250000 250000 250000 250000 250000 250000 250000 250000 250000 250000 250000 250000 250000 250000 250000 250000 250000 250000 250000 250000 250000 250000 250000 250000 250000 250000 250000 250000 250000 250000 250000 250000 250000 0 0 0 0 0 0 0 0 0 0 0 0 0 0 0 0 0 0 0 0 0 0 0 0 0 0 0 0 0 0 0 0 0 0 0 0 0 0 0 0 0 0 0 0 0 0 0 0 0 0 0 0 0 0 0 0 0 0 0 0 0 0 0 0 0 0 0 0 0 0 0 0 0 0 0 0 0 0 0 0 0 0 0 0 0 0 0 0 0 0 0 0 0 0 0 0 0 0 0 0 0 0 0 0 0 0 0 0 0 0 0 0 0 0 0 0 0 0 0 0 0 0 0 0 0 0 0 0 0 0 0 0 0 0 0 0 0 0 0 0 0 0 0 0 0 0 0 0 0 0 0 0 0 0 0 0 0 0 0 0 
</DataArray>
<DataArray Name="Temperature" format="ascii" type="Float64">
2971.43 2971.43 2971.43 2771.43 2771.43 2771.43 2771.43 2771.43 2771.43 2771.43 2771.43 2771.43 2771.43 2771.43 2771.43 2771.43 2771.43 2771.43 2771.43 2771.43 2771.43 2771.43 2771.43 2771.43 2771.43 2771.43 2771.43 2771.43 2771.43 2771.43 2771.43 2771.43 2771.43 2771.43 2771.43 2771.43 2771.43 2771.43 2771.43 2771.43 2771.43 2771.43 2771.43 2771.43 2771.43 2771.43 2771.43 2771.43 2771.43 2771.43 2771.43 2771.43 2771.43 2771.43 2771.43 2771.43 2771.43 2771.43 2771.43 2771.43 2771.43 2771.43 2771.43 2771.43 2771.43 2771.43 2771.43 2771.43 2771.43 2771.43 2771.43 2771.43 2771.43 2771.43 2771.43 2771.43 2771.43 2771.43 2771.43 2771.43 2771.43 2771.43 2771.43 2771.43 2771.43 2771.43 2771.43 2771.43 2771.43 2771.43 2771.43 2771.43 2771.43 2771.43 2771.43 2771.43 2771.43 2771.43 2771.43 2771.43 2771.43 2771.43 2771.43 2771.43 2771.43 2771.43 2771.43 2771.43 2771.43 2771.43 2771.43 2771.43 2771.43 2771.43 2771.43 2771.43 2771.43 2771.43 2771.43 2771.43 2771.43 2771.43 2771.43 2771.43 2771.43 2771.43 2771.43 2771.43 2771.43 2771.43 2771.43 2771.43 2771.43 2771.43 2771.43 2771.43 2771.43 2771.43 2771.43 2771.43 2771.43 2771.43 2771.43 2771.43 2771.43 2771.43 2971.43 2971.43 2971.43 2971.43 2971.43 2971.43 2971.43 2971.43 2971.43 2971.43 2971.43 2971.43 2971.43 2971.43 2787.5 2787.5 2787.5 2787.5 2587.5 2587.5 2587.5 2587.5 2587.5 2587.5 2587.5 2587.5 2587.5 2587.5 2587.5 2587.5 2587.5 2587.5 2587.5 2587.5 2587.5 2587.5 2587.5 2587.5 2587.5 2587.5 2587.5 2587.5 2587.5 2587.5 2587.5 2587.5 2587.5 2587.5 2587.5 2587.5 2587.5 2587.5 2587.5 2587.5 2587.5 2587.5 2587.5 2587.5 2587.5 2587.5 2587.5 2587.5 2587.5 2587.5 2587.5 2587.5 2587.5 2587.5 2587.5 2587.5 2587.5 2587.5 2587.5 2587.5 2587.5 2587.5 2587.5 2587.5 2587.5 2587.5 2587.5 2587.5 2587.5 2587.5 2587.5 2587.5 2587.5 2587.5 2587.5 2587.5 2587.5 2587.5 2587.5 2587.5 2587.5 2587.5 2587.5 2587.5 2587.5 2587.5 2587.5 2587.5 2587.5 2587.5 2587.5 2587.5 2587.5 2587.5 2587.5 2587.5 2587.5 2587.5 2587.5 2587.5 2587.5 2587.5 2587.5 2587.5 2587.5 2587.5 2587.5 2587.5 2587.5 2587.5 2587.5 2587.5 2587.5 2587.5 2587.5 2587.5 2587.5 2587.5 2587.5 2587.5 2587.5 2587.5 2587.5 2587.5 2587.5 2587.5 2587.5 2587.5 2587.5 2587.5 2587.5 2587.5 2587.5 2587.5 2587.5 2587.5 2587.5 2587.5 2587.5 2587.5 2587.5 2587.5 2587.5 2587.5 2587.5 2587.5 2587.5 2587.5 2587.5 2587.5 2787.5 2787.5 2787.5 2787.5 2787.5 2787.5 2787.5 2787.5 2787.5 2787.5 2615.78 2615.78 2615.78 2615.78 2615.78 2615.78 2615.78 2615.78 2615.78 2415.78 2415.78 2415.78 2415.78 2415.78 2415.78 2415.78 2415.78 2415.78 2415.78 2415.78 2415.78 2415.78 2415.78 2415.78 2415.78 2415.78 2415.78 2415.78 2415.78 2415.78 2415.78 2415.78 2415.78 2415.78 2415.78 2415.78 2415.78 2415.78 2415.78 2415.78 2415.78 2415.78 2415.78 2415.78 2415.78 2415.78 2415.78 2415.78 2415.78 2415.78 2415.78 2415.78 2415.78 2415.78 2415.78 2415.78 2415.78 2415.78 2415.78 2415.78 2415.78 2415.78 2415.78 2415.78 2415.78 2415.78 2415.78 2415.78 2415.78 2415.78 2415.78 2415.78 2415.78 2415.78 2415.78 2415.78 2415.78 2415.78 2415.78 2415.78 2415.78 2415.78 2415.78 2415.78 2415.78 2415.78 2415.78 2415.78 2415.78 2415.78 2415.78 2415.78 2415.78 2415.78 2415.78 2415.78 2415.78 2415.78 2415.78 2415.78 2415.78 2415.78 2415.78 2415.78 2415.78 2415.78 2415.78 2415.78 2415.78 2415.78 2415.78 2415.78 2415.78 2415.78 2415.78 2415.78 2415.78 2415.78 2415.78 2415.78 2415.78 2415.78 2415.78 2415.78 2415.78 2415.78 2415.78 2415.78 2415.78 2415.78 2415.78 2415.78 2415.78 2415.78 2415.78 2415.78 2415.78 2415.78 2415.78 2415.78 2415.78 2415.78 2415.78 2415.78 2415.78 2415.78 2415.78 2415.78 2415.78 2415.78 2415.78 2415.78 2415.78 2415.78 2415.78 2415.78 2415.78 2615.78 2615.78 2615.78 2455.46 2455.46 2455.46 2455.46 2455.46 2455.46 2455.46 2455.46 2455.46 2455.46 2455.46 2455.46 2455.46 2255.46 2255.46 2255.46 2255.46 2255.46 2255.46 2255.46 2255.46 2255.46 2255.46 2255.46 2255.46 2255.46 2255.46 2255.46 2255.46 2255.46 2255.46 2255.46 2255.46 2255.46 2255.46 2255.46 2255.46 2255.46 2255.46 2255.46 2255.46 2255.46 2255.46 2255.46 2255.46 2255.46 2255.46 2255.46 2255.46 2255.46 2255.46 2255.46 2255.46 2255.46 2255.46 2255.46 2255.46 2255.46 2255.46 2255.46 2255.46 2255.46 2255.46 2255.46 2255.46 2255.46 2255.46 2255.46 2255.46 2255.46 2255.46 2255.46 2255.46 2255.46 2255.46 2255.46 2255.46 2255.46 2255.46 2255.46 2255.46 2255.46 2255.46 2255.46 2255.46 2255.46 2255.46 2255.46 2255.46 2255.46 2255.46 2255.46 2255.46 2255.46 2255.46 2255.46 2255.46 2255.46 2255.46 2255.46 2255.46 2255.46 2255.46 2255.46 2255.46 2255.46 2255.46 2255.46 2255.46 2255.46 2255.46 2255.46 2255.46 2255.46 2255.46 2255.46 2255.46 2255.46 2255.46 2255.46 2255.46 2255.46 2255.46 2255.46 2255.46 2255.46 2255.46 2255.46 2255.46 2255.46 2255.46 2255.46 2255.46 2255.46 2255.46 2255.46 2255.46 2255.46 2255.46 2255.46 2255.46 2255.46 2255.46 2255.46 2255.46 2255.46 2255.46 2255.46 2255.46 2255.46 2255.46 2255.46 2255.46 2255.46 2255.46 2255.46 2255.46 2255.46 2255.46 2255.46 2105.78 2305.78 2305.78 2305.78 2305.78 2305.78 2305.78 2305.78 2305.78 2305.78 2305.78 2305.78 2305.78 2305.78 2105.78 2105.78 2105.78 2105.78 2105.78 2105.78 2105.78 2105.78 2105.78 2105.78 2105.78 2105.78 2105.78 2105.78 2105.78 2105.78 2105.78 2105.78 2105.78 2105.78 2105.78 2105.78 2105.78 2105.78 2105.78 2105.78 2105.78 2105.78 2105.78 2105.78 2105.78 2105.78 2105.78 2105.78 2105.78 2105.78 2105.78 2105.78 2105.78 2105.78 2105.78 2105.78 2105.78 2105.78 2105.78 2105.78 2105.78 2105.78 2105.78 2105.78 2105.78 2105.78 2105.78 2105.78 2105.78 2105.78 2105.78 2105.78 2105.78 2105.78 2105.78 2105.78 2105.78 2105.78 2105.78 2105.78 2105.78 2105.78 2105.78 2105.78 2105.78 2105.78 2105.78 2105.78 2105.78 2105.78 2105.78 2105.78 2105.78 2105.78 2105.78 2105.78 2105.78 2105.78 2105.78 2105.78 2105.78 2105.78 2105.78 2105.78 2105.78 2105.78 2105.78 2105.78 2105.78 2105.78 2105.78 2105.78 2105.78 2105.78 2105.78 2105.78 2105.78 2105.78 2105.78 2105.78 2105.78 2105.78 2105.78 2105.78 2105.78 2105.78 2105.78 2105.78 2105.78 2105.78 2105.78 2105.78 2105.78 2105.78 2105.78 2105.78 2105.78 2105.78 2105.78 2105.78 2105.78 2105.78 2105.78 2105.78 2105.78 2105.78 2105.78 2105.78 2105.78 2105.78 2105.78 2105.78 2105.78 2105.78 2105.78 2105.78 2105.78 2105.78 2105.78 2105.78 1966.02 2166.02 2166.02 2166.02 2166.02 2166.02 2166.02 2166.02 2166.02 2166.02 2166.02 2166.02 2166.02 1966.02 1966.02 1966.02 1966.02 1966.02 1966.02 1966.02 1966.02 1966.02 1966.02 1966.02 1966.02 1966.02 1966.02 1966.02 1966.02 1966.02 1966.02 1966.02 1966.02 1966.02 1966.02 1966.02 1966.02 1966.02 1966.02 1966.02 1966.02 1966.02 1966.02 1966.02 1966.02 1966.02 1966.02 1966.02 1966.02 1966.02 1966.02 1966.02 1966.02 1966.02 1966.02 1966.02 1966.02 1966.02 1966.02 1966.02 1966.02 1966.02 1966.02 1966.02 1966.02 1966.02 1966.02 1966.02 1966.02 1966.02 1966.02 1966.02 1966.02 1966.02 1966.02 1966.02 1966.02 1966.02 1966.02 1966.02 1966.02 1966.02 1966.02 1966.02 1966.02 1966.02 1966.02 1966.02 1966.02 1966.02 1966.02 1966.02 1966.02 1966.02 1966.02 1966.02 1966.02 1966.02 1966.02 1966.02 1966.02 1966.02 1966.02 1966.02 1966.02 1966.02 1966.02 1966.02 1966.02 1966.02 1966.02 1966.02 1966.02 1966.02 1966.02 1966.02 1966.02 1966.02 1966.02 1966.02 1966.02 1966.02 1966.02 1966.02 1966.02 1966.02 1966.02 1966.02 1966.02 1966.02 1966.02 1966.02 1966.02 1966.02 1966.02 1966.02 1966.02 1966.02 1966.02 1966.02 1966.02 1966.02 1966.02 1966.02 1966.02 1966.02 1966.02 1966.02 1966.02 1966.02 1966.02 1966.02 1966.02 1966.02 1966.02 1966.02 1966.02 1966.02 1966.02 1966.02 1835.55 2035.55 2035.55 2035.55 2035.55 2035.55 2035.55 2035.55 2035.55 2035.55 2035.55 2035.55 1835.55 1835.55 1835.55 1835.55 1835.55 1835.55 1835.55 1835.55 1835.55 1835.55 1835.55 1835.55 1835.55 1835.55 1835.55 1835.55 1835.55 1835.55 1835.55 1835.55 1835.55 1835.55 1835.55 1835.55 1835.55 1835.55 1835.55 1835.55 1835.55 1835.55 1835.55 1835.55 1835.55 1835.55 1835.55 1835.55 1835.55 1835.55 1835.55 1835.55 1835.55 1835.55 1835.55 1835.55 1835.55 1835.55 1835.55 1835.55 1835.55 1835.55 1835.55 1835.55 1835.55 1835.55 1835.55 1835.55 1835.55 1835.55 1835.55 1835.55 1835.55 1835.55 1835.55 1835.55 1835.55 1835.55 1835.55 1835.55 1835.55 1835.55 1835.55 1835.55 1835.55 1835.55 1835.55 1835.55 1835.55 1835.55 1835.55 1835.55 1835.55 1835.55 1835.55 1835.55 1835.55 1835.55 1835.55 1835.55 1835.55 1835.55 1835.55 1835.55 1835.55 1835.55 1835.55 1835.55 1835.55 1835.55 1835.55 1835.55 1835.55 1835.55 1835.55 1835.55 1835.55 1835.55 1835.55 1835.55 1835.55 1835.55 1835.55 1835.55 1835.55 1835.55 1835.55 1835.55 1835.55 1835.55 1835.55 1835.55 1835.55 1835.55 1835.55 1835.55 1835.55 1835.55 1835.55 1835.55 1835.55 1835.55 1835.55 1835.55 1835.55 1835.55 1835.55 1835.55 1835.55 1835.55 1835.55 1835.55 1835.55 1835.55 1835.55 1835.55 1835.55 1835.55 1835.55 1835.55 1713.73 1713.73 1713.73 1713.73 1913.73 1913.73 1913.73 1713.73 1713.73 1713.73 1713.73 1713.73 1713.73 1713.73 1713.73 1713.73 1713.73 1713.73 1713.73 1713.73 1713.73 1713.73 1713.73 1713.73 1713.73 1713.73 1713.73 1713.73 1713.73 1713.73 1713.73 1713.73 1713.73 1713.73 1713.73 1713.73 1713.73 1713.73 1713.73 1713.73 1713.73 1713.73 1713.73 1713.73 1713.73 1713.73 1713.73 1713.73 1713.73 1713.73 1713.73 1713.73 1713.73 1713.73 1713.73 1713.73 1713.73 1713.73 1713.73 1713.73 1713.73 1713.73 1713.73 1713.73 1713.73 1713.73 1713.73 1713.73 1713.73 1713.73 1713.73 1713.73 1713.73 1713.73 1713.73 1713.73 1713.73 1713.73 1713.73 1713.73 1713.73 1713.73 1713.73 1713.73 1713.73 1713.73 1713.73 1713.73 1713.73 1713.73 1713.73 1713.73 1713.73 1713.73 1713.73 1713.73 1713.73 1713.73 1713.73 1713.73 1713.73 1713.73 1713.73 1713.73 1713.73 1713.73 1713.73 1713.73 1713.73 1713.73 1713.73 1713.73 1713.73 1713.73 1713.73 1713.73 1713.73 1713.73 1713.73 1713.73 1713.73 1713.73 1713.73 1713.73 1713.73 1713.73 1713.73 1713.73 1713.73 1713.73 1713.73 1713.73 1713.73 1713.73 1713.73 1713.73 1713.73 1713.73 1713.73 1713.73 1713.73 1713.73 1713.73 1713.73 1713.73 1713.73 1713.73 1713.73 1713.73 1713.73 1713.73 1713.73 1713.73 1713.73 1713.73 1713.73 1713.73 1713.73 1713.73 1713.73 1600 1600 1600 1600 1600 1600 1600 1600 1600 1600 1600 1600 1600 1600 1600 1600 1600 1600 1600 1600 1600 1600 1600 1600 1600 1600 1600 1600 1600 1600 1600 1600 1600 1600 1600 1600 1600 1600 1600 1600 1600 1600 1600 1600 1600 1600 1600 1600 1600 1600 1600 1600 1600 1600 1600 1600 1600 1600 1600 1600 1600 1600 1600 1600 1600 1600 1600 1600 1600 1600 1600 1600 1600 1600 1600 1600 1600 1600 1600 1600 1600 1600 1600 1600 1600 1600 1600 1600 1600 1600 1600 1600 1600 1600 1600 1600 1600 1600 1600 1600 1600 1600 1600 1600 1600 1600 1600 1600 1600 1600 1600 1600 1600 1600 1600 1600 1600 1600 1600 1600 1600 1600 1600 1600 1600 1600 1600 1600 1600 1600 1600 1600 1600 1600 1600 1600 1600 1600 1600 1600 1600 1600 1600 1600 1600 1600 1600 1600 1600 1600 1600 1600 1600 1600 1600 1600 1600 1600 1600 1600 
</DataArray>
<DataArray Name="Tag" format="ascii" type="Float64">
0 0 0 -1 -1 -1 -1 -1 -1 -1 -1 -1 -1 -1 -1 -1 -1 -1 -1 -1 -1 -1 -1 -1 -1 -1 -1 -1 -1 -1 -1 -1 -1 -1 -1 -1 -1 -1 -1 -1 -1 -1 -1 -1 -1 -1 -1 -1 -1 -1 -1 -1 -1 -1 -1 -1 -1 -1 -1 -1 -1 -1 -1 -1 -1 -1 -1 -1 -1 -1 -1 -1 -1 -1 -1 -1 -1 -1 -1 -1 -1 -1 -1 -1 -1 -1 -1 -1 -1 -1 -1 -1 -1 -1 -1 -1 -1 -1 -1 -1 -1 -1 -1 -1 -1 -1 -1 -1 -1 -1 -1 -1 -1 -1 -1 -1 -1 -1 -1 -1 -1 -1 -1 -1 -1 -1 -1 -1 -1 -1 -1 -1 -1 -1 -1 -1 -1 -1 -1 -1 -1 -1 -1 -1 -1 -1 0 0 0 0 0 0 0 0 0 0 0 0 0 0 0 0 0 0 -1 -1 -1 -1 -1 -1 -1 -1 -1 -1 -1 -1 -1 -1 -1 -1 -1 -1 -1 -1 -1 -1 -1 -1 -1 -1 -1 -1 -1 -1 -1 -1 -1 -1 -1 -1 -1 -1 -1 -1 -1 -1 -1 -1 -1 -1 -1 -1 -1 -1 -1 -1 -1 -1 -1 -1 -1 -1 -1 -1 -1 -1 -1 -1 -1 -1 -1 -1 -1 -1 -1 -1 -1 -1 -1 -1 -1 -1 -1 -1 -1 -1 -1 -1 -1 -1 -1 -1 -1 -1 -1 -1 -1 -1 -1 -1 -1 -1 -1 -1 -1 -1 -1 -1 -1 -1 -1 -1 -1 -1 -1 -1 -1 -1 -1 -1 -1 -1 -1 -1 -1 -1 -1 -1 -1 -1 -1 -1 -1 -1 -1 -1 -1 -1 -1 -1 -1 -1 -1 -1 -1 -1 -1 -1 -1 -1 0 0 0 0 0 0 0 0 0 0 0 0 0 0 0 0 0 0 0 -1 -1 -1 -1 -1 -1 -1 -1 -1 -1 -1 -1 -1 -1 -1 -1 -1 -1 -1 -1 -1 -1 -1 -1 -1 -1 -1 -1 -1 -1 -1 -1 -1 -1 -1 -1 -1 -1 -1 -1 -1 -1 -1 -1 -1 -1 -1 -1 -1 -1 -1 -1 -1 -1 -1 -1 -1 -1 -1 -1 -1 -1 -1 -1 -1 -1 -1 -1 -1 -1 -1 -1 -1 -1 -1 -1 -1 -1 -1 -1 -1 -1 -1 -1 -1 -1 -1 -1 -1 -1 -1 -1 -1 -1 -1 -1 -1 -1 -1 -1 -1 -1 -1 -1 -1 -1 -1 -1 -1 -1 -1 -1 -1 -1 -1 -1 -1 -1 -1 -1 -1 -1 -1 -1 -1 -1 -1 -1 -1 -1 -1 -1 -1 -1 -1 -1 -1 -1 -1 -1 -1 -1 -1 -1 -1 -1 -1 -1 0 0 0 0 0 0 0 0 0 0 0 0 0 0 0 0 -1 -1 -1 -1 -1 -1 -1 -1 -1 -1 -1 -1 -1 -1 -1 -1 -1 -1 -1 -1 -1 -1 -1 -1 -1 -1 -1 -1 -1 -1 -1 -1 -1 -1 -1 -1 -1 -1 -1 -1 -1 -1 -1 -1 -1 -1 -1 -1 -1 -1 -1 -1 -1 -1 -1 -1 -1 -1 -1 -1 -1 -1 -1 -1 -1 -1 -1 -1 -1 -1 -1 -1 -1 -1 -1 -1 -1 -1 -1 -1 -1 -1 -1 -1 -1 -1 -1 -1 -1 -1 -1 -1 -1 -1 -1 -1 -1 -1 -1 -1 -1 -1 -1 -1 -1 -1 -1 -1 -1 -1 -1 -1 -1 -1 -1 -1 -1 -1 -1 -1 -1 -1 -1 -1 -1 -1 -1 -1 -1 -1 -1 -1 -1 -1 -1 -1 -1 -1 -1 -1 -1 -1 -1 -1 -1 -1 -1 -1 0 0 0 0 0 0 0 0 0 0 0 0 0 -1 -1 -1 -1 -1 -1 -1 -1 -1 -1 -1 -1 -1 -1 -1 -1 -1 -1 -1 -1 -1 -1 -1 -1 -1 -1 -1 -1 -1 -1 -1 -1 -1 -1 -1 -1 -1 -1 -1 -1 -1 -1 -1 -1 -1 -1 -1 -1 -1 -1 -1 -1 -1 -1 -1 -1 -1 -1 -1 -1 -1 -1 -1 -1 -1 -1 -1 -1 -1 -1 -1 -1 -1 -1 -1 -1 -1 -1 -1 -1 -1 -1 -1 -1 -1 -1 -1 -1 -1 -1 -1 -1 -1 -1 -1 -1 -1 -1 -1 -1 -1 -1 -1 -1 -1 -1 -1 -1 -1 -1 -1 -1 -1 -1 -1 -1 -1 -1 -1 -1 -1 -1 -1 -1 -1 -1 -1 -1 -1 -1 -1 -1 -1 -1 -1 -1 -1 -1 -1 -1 -1 -1 -1 -1 -1 -1 -1 0 0 0 0 0 0 0 0 0 0 0 0 -1 -1 -1 -1 -1 -1 -1 -1 -1 -1 -1 -1 -1 -1 -1 -1 -1 -1 -1 -1 -1 -1 -1 -1 -1 -1 -1 -1 -1 -1 -1 -1 -1 -1 -1 -1 -1 -1 -1 -1 -1 -1 -1 -1 -1 -1 -1 -1 -1 -1 -1 -1 -1 -1 -1 -1 -1 -1 -1 -1 -1 -1 -1 -1 -1 -1 -1 -1 -1 -1 -1 -1 -1 -1 -1 -1 -1 -1 -1 -1 -1 -1 -1 -1 -1 -1 -1 -1 -1 -1 -1 -1 -1 -1 -1 -1 -1 -1 -1 -1 -1 -1 -1 -1 -1 -1 -1 -1 -1 -1 -1 -1 -1 -1 -1 -1 -1 -1 -1 -1 -1 -1 -1 -1 -1 -1 -1 -1 -1 -1 -1 -1 -1 -1 -1 -1 -1 -1 -1 -1 -1 -1 -1 -1 -1 -1 -1 -1 0 0 0 0 0 0 0 0 0 0 0 -1 -1 -1 -1 -1 -1 -1 -1 -1 -1 -1 -1 -1 -1 -1 -1 -1 -1 -1 -1 -1 -1 -1 -1 -1 -1 -1 -1 -1 -1 -1 -1 -1 -1 -1 -1 -1 -1 -1 -1 -1 -1 -1 -1 -1 -1 -1 -1 -1 -1 -1 -1 -1 -1 -1 -1 -1 -1 -1 -1 -1 -1 -1 -1 -1 -1 -1 -1 -1 -1 -1 -1 -1 -1 -1 -1 -1 -1 -1 -1 -1 -1 -1 -1 -1 -1 -1 -1 -1 -1 -1 -1 -1 -1 -1 -1 -1 -1 -1 -1 -1 -1 -1 -1 -1 -1 -1 -1 -1 -1 -1 -1 -1 -1 -1 -1 -1 -1 -1 -1 -1 -1 -1 -1 -1 -1 -1 -1 -1 -1 -1 -1 -1 -1 -1 -1 -1 -1 -1 -1 -1 -1 -1 -1 -1 -1 -1 -1 -1 -1 -1 -1 0 0 0 -1 -1 -1 -1 -1 -1 -1 -1 -1 -1 -1 -1 -1 -1 -1 -1 -1 -1 -1 -1 -1 -1 -1 -1 -1 -1 -1 -1 -1 -1 -1 -1 -1 -1 -1 -1 -1 -1 -1 -1 -1 -1 -1 -1 -1 -1 -1 -1 -1 -1 -1 -1 -1 -1 -1 -1 -1 -1 -1 -1 -1 -1 -1 -1 -1 -1 -1 -1 -1 -1 -1 -1 -1 -1 -1 -1 -1 -1 -1 -1 -1 -1 -1 -1 -1 -1 -1 -1 -1 -1 -1 -1 -1 -1 -1 -1 -1 -1 -1 -1 -1 -1 -1 -1 -1 -1 -1 -1 -1 -1 -1 -1 -1 -1 -1 -1 -1 -1 -1 -1 -1 -1 -1 -1 -1 -1 -1 -1 -1 -1 -1 -1 -1 -1 -1 -1 -1 -1 -1 -1 -1 -1 -1 -1 -1 -1 -1 -1 -1 -1 -1 -1 -1 -1 -1 -1 -1 -1 -1 -1 -1 -1 -1 -1 -1 -1 -1 -1 -1 -1 -1 -1 -1 -1 -1 -1 -1 -1 -1 -1 -1 -1 -1 -1 -1 -1 -1 -1 -1 -1 -1 -1 -1 -1 -1 -1 -1 -1 -1 -1 -1 -1 -1 -1 -1 -1 -1 -1 -1 -1 -1 -1 -1 -1 -1 -1 -1 -1 -1 -1 -1 -1 -1 -1 -1 -1 -1 -1 -1 -1 -1 -1 -1 -1 -1 -1 -1 -1 -1 -1 -1 -1 -1 -1 -1 -1 -1 -1 -1 -1 -1 -1 -1 -1 -1 -1 -1 -1 -1 -1 -1 -1 -1 -1 -1 -1 -1 -1 -1 -1 -1 -1 -1 -1 -1 -1 -1 -1 -1 -1 -1 -1 -1 -1 -1 -1 -1 -1 -1 -1 -1 -1 -1 -1 -1 -1 -1 -1 -1 -1 -1 -1 -1 -1 -1 -1 -1 -1 -1 -1 -1 -1 -1 
</DataArray>
<DataArray Name="Composition 0" format="ascii" type="Float64">
0 0 0 0 0 0 0 0 0 0 0 0 0 0 0 0 0 0 0 0 0 0 0 0 0 0 0 0 0 0 0 0 0 0 0 0 0 0 0 0 0 0 0 0 0 0 0 0 0 0 0 0 0 0 0 0 0 0 0 0 0 0 0 0 0 0 0 0 0 0 0 0 0 0 0 0 0 0 0 0 0 0 0 0 0 0 0 0 0 0 0 0 0 0 0 0 0 0 0 0 0 0 0 0 0 0 0 0 0 0 0 0 0 0 0 0 0 0 0 0 0 0 0 0 0 0 0 0 0 0 0 0 0 0 0 0 0 0 0 0 0 0 0 0 0 0 0 0 0 0 0 0 0 0 0 0 0 0 0 0 0 0 0 0 0 0 0 0 0 0 0 0 0 0 0 0 0 0 0 0 0 0 0 0 0 0 0 0 0 0 0 0 0 0 0 0 0 0 0 0 0 0 0 0 0 0 0 0 0 0 0 0 0 0 0 0 0 0 0 0 0 0 0 0 0 0 0 0 0 0 0 0 0 0 0 0 0 0 0 0 0 0 0 0 0 0 0 0 0 0 0 0 0 0 0 0 0 0 0 0 0 0 0 0 0 0 0 0 0 0 0 0 0 0 0 0 0 0 0 0 0 0 0 0 0 0 0 0 0 0 0 0 0 0 0 0 0 0 0 0 0 0 0 0 0 0 0 0 0 0 0 0 0 0 0 0 0 0 0 0 0 0 0 0 0 0 0 0 0 0 0 0 0 0 0 0 0 0 0 0 0 0 0 0 0 0 0 0 0 0 0 0 0 0 0 0 0 0 0 0 0 0 0 0 0 0 0 0 0 0 0 0 0 0 0 0 0 0 0 0 0 0 0 0 0 0 0 0 0 0 0 0 0 0 0 0 0 0 0 0 0 0 0 0 0 0 0 0 0 0 0 0 0 0 0 0 0 0 0 0 0 0 0 0 0 0 0 0 0 0 0 0 0 0 0 0 0 0 0 0 0 0 0 0 0 0 0 0 0 0 0 0 0 0 0 0 0 0 0 0 0 0 0 0 0 0 0 0 0 0 0 0 0 0 0 0 0 0 0 0 0 0 0 0 0 0 0 0 0 0 0 0 0 0 0 0 0 0 0 0 0 0 0 0 0 0 0 0 0 0 0 0 0 0 0 0 0 0 0 0 0 0 0 0 0 0 0 0 0 0 0 0 0 0 0 0 0 0 0 0 0 0 0 0 0 0 0 0 0 0 0 0 0 0 0 0 0 0 0 0 0 0 0 0 0 0 0 0 0 0 0 0 0 0 0 0 0 0 0 0 0 0 0 0 0 0 0 0 0 0 0 0 0 0 0 0 0 0 0 0 0 0 0 0 0 0 0 0 0 0 0 0 0 0 0 0 0 0 0 0 0 0 0 0 0 0 0 0 0 0 0 0 0 0 0 0 0 0 0 0 0 0 0 0 0 0 0 0 0 0 0 0 0 0 0 0 0 0 0 0 0 0 0 0 0 0 0 0 0 0 0 0 0 0 0 0 0 0 0 0 0 0 0 0 0 0 0 0 0 0 0 0 0 0 0 0 0 0 0 0 0 0 0 0 0 0 0 0 0 0 0 0 0 0 0 0 0 0 0 0 0 0 0 0 0 0 0 0 0 0 0 0 0 0 0 0 0 0 0 0 0 0 0 0 0 0 0 0 0 0 0 0 0 0 0 0 0 0 0 0 0 0 0 0 0 0 0 0 0 0 0 0 0 0 0 0 0 0 0 0 0 0 0 0 0 0 0 0 0 0 0 0 0 0 0 0 0 0 0 0 0 0 0 0 0 0 0 0 0 0 0 0 0 0 0 0 0 0 0 0 0 0 0 0 0 0 0 0 0 0 0 0 0 0 0 0 0 0 0 0 0 0 0 0 0 0 0 0 0 0 0 0 0 0 0 0 0 0 0 0 0 0 0 0 0 0 0 0 0 0 0 0 0 0 0 0 0 0 0 0 0 0 0 0 0 0 0 0 0 0 0 0 0 0 0 0 0 0 0 0 0 0 0 0 0 0 0 0 0 0 0 0 0 0 0 0 0 0 0 0 0 0 0 0 0 0 0 0 0 0 0 0 0 0 0 0 0 0 0 0 0 0 0 0 0 0 0 0 0 0 0 0 0 0 0 0 0 0 0 0 0 0 0 0 0 0 0 0 0 0 0 0 0 0 0 0 0 0 0 0 0 0 0 0 0 0 0 0 0 0 0 0 0 0 0 0 0 0 0 0 0 0 0 0 0 0 0 0 0 0 0 0 0 0 0 0 0 0 0 0 0 0 0 0 0 0 0 0 0 0 0 0 0 0 0 0 0 0 0 0 0 0 0 0 0 0 0 0 0 0 0 0 0 0 0 0 0 0 0 0 0 0 0 0 0 0 0 0 0 0 0 0 0 0 0 0 0 0 0 0 0 0 0 0 0 0 0 0 0 0 0 0 0 0 0 0 0 0 0 0 0 0 0 0 0 0 0 0 0 0 0 0 0 0 0 0 0 0 0 0 0 0 0 0 0 0 0 0 0 0 0 0 0 0 0 0 0 0 0 0 0 0 0 0 0 0 0 0 0 0 0 0 0 0 0 0 0 0 0 0 0 0 0 0 0 0 0 0 0 0 0 0 0 0 0 0 0 0 0 0 0 0 0 0 0 0 0 0 0 0 0 0 0 0 0 0 0 0 0 0 0 0 0 0 0 0 0 0 0 0 0 0 0 0 0 0 0 0 0 0 0 0 0 0 0 0 0 0 0 0 0 0 0 0 0 0 0 0 0 0 0 0 0 0 0 0 0 0 0 0 0 0 0 0 0 0 0 0 0 0 0 0 0 0 0 0 0 0 0 0 0 0 0 0 0 0 0 0 0 0 0 0 0 0 0 0 0 0 0 0 0 0 0 0 0 0 0 0 0 0 0 0 0 0 0 0 0 0 0 0 0 0 0 0 0 0 0 0 0 0 0 0 0 0 0 0 0 0 0 0 0 0 0 0 0 0 0 0 0 0 0 0 0 0 0 0 0 0 0 0 0 0 0 0 0 0 0 0 0 0 0 0 0 0 0 0 0 0 0 0 0 0 0 0 0 0 0 0 0 0 0 0 0 0 0 0 0 0 0 0 0 0 0 0 0 0 0 0 0 0 0 0 0 0 0 0 0 0 0 0 0 0 0 0 0 0 0 0 0 0 0 0 0 0 0 0 0 0 0 0 0 0 0 0 0 0 0 0 0 0 
</DataArray>
<DataArray Name="Composition 1" format="ascii" type="Float64">