<?xml version="1.0"?>
<VTKFile byte_order="LittleEndian" type="UnstructuredGrid" version="0.1">
<UnstructuredGrid>
<Piece NumberOfCells="1000" NumberOfPoints="1331">
<PointData>
<DataArray Name="Depth" format="ascii" type="Float64">
100000 90000 80000 70000 60000 50000 40000 30000 20000 10000 0 100000 90000 80000 70000 60000 50000 40000 30000 20000 10000 0 100000 90000 80000 70000 60000 50000 40000 30000 20000 10000 0 100000 90000 80000 70000 60000 50000 40000 30000 20000 10000 0 100000 90000 80000 70000 60000 50000 40000 30000 20000 10000 0 100000 90000 80000 70000 60000 50000 40000 30000 20000 10000 0 100000 90000 80000 70000 60000 50000 40000 30000 20000 10000 0 100000 90000 80000 70000 60000 50000 40000 30000 20000 10000 0 100000 90000 80000 70000 60000 50000 40000 30000 20000 10000 0 100000 90000 80000 70000 60000 50000 40000 30000 20000 10000 0 100000 90000 80000 70000 60000 50000 40000 30000 20000 10000 0 100000 90000 80000 70000 60000 50000 40000 30000 20000 10000 0 100000 90000 80000 70000 60000 50000 40000 30000 20000 10000 0 100000 90000 80000 70000 60000 50000 40000 30000 20000 10000 0 100000 90000 80000 70000 60000 50000 40000 30000 20000 10000 0 100000 90000 80000 70000 60000 50000 40000 30000 20000 10000 0 100000 90000 80000 70000 60000 50000 40000 30000 20000 10000 0 100000 90000 80000 70000 60000 50000 40000 30000 20000 10000 0 100000 90000 80000 70000 60000 50000 40000 30000 20000 10000 0 100000 90000 80000 70000 60000 50000 40000 30000 20000 10000 0 100000 90000 80000 70000 60000 50000 40000 30000 20000 10000 0 100000 90000 80000 70000 60000 50000 40000 30000 20000 10000 0 100000 90000 80000 70000 60000 50000 40000 30000 20000 10000 0 100000 90000 80000 70000 60000 50000 40000 30000 20000 10000 0 100000 90000 80000 70000 60000 50000 40000 30000 20000 10000 0 100000 90000 80000 70000 60000 50000 40000 30000 20000 10000 0 100000 90000 80000 70000 60000 50000 40000 30000 20000 10000 0 100000 90000 80000 70000 60000 50000 40000 30000 20000 10000 0 100000 90000 80000 70000 60000 50000 40000 30000 20000 10000 0 100000 90000 80000 70000 60000 50000 40000 30000 20000 10000 0 100000 90000 80000 70000 60000 50000 40000 30000 20000 10000 0 100000 90000 80000 70000 60000 50000 40000 30000 20000 10000 0 100000 90000 80000 70000 60000 50000 40000 30000 20000 10000 0 100000 90000 80000 70000 60000 50000 40000 30000 20000 10000 0 100000 90000 80000 70000 60000 50000 40000 30000 20000 10000 0 100000 90000 80000 70000 60000 50000 40000 30000 20000 10000 0 100000 90000 80000 70000 60000 50000 40000 30000 20000 10000 0 100000 90000 80000 70000 60000 50000 40000 30000 20000 10000 0 100000 90000 80000 70000 60000 50000 40000 30000 20000 10000 0 100000 90000 80000 70000 60000 50000 40000 30000 20000 10000 0 100000 90000 80000 70000 60000 50000 40000 30000 20000 10000 0 100000 90000 80000 70000 60000 50000 40000 30000 20000 10000 0 100000 90000 80000 70000 60000 50000 40000 30000 20000 10000 0 100000 90000 80000 70000 60000 50000 40000 30000 20000 10000 0 100000 90000 80000 70000 60000 50000 40000 30000 20000 10000 0 100000 90000 80000 70000 60000 50000 40000 30000 20000 10000 0 100000 90000 80000 70000 60000 50000 40000 30000 20000 10000 0 100000 90000 80000 70000 60000 50000 40000 30000 20000 10000 0 100000 90000 80000 70000 60000 50000 40000 30000 20000 10000 0 100000 90000 80000 70000 60000 50000 40000 30000 20000 10000 0 100000 90000 80000 70000 60000 50000 40000 30000 20000 10000 0 100000 90000 80000 70000 60000 50000 40000 30000 20000 10000 0 100000 90000 80000 70000 60000 50000 40000 30000 20000 10000 0 100000 90000 80000 70000 60000 50000 40000 30000 20000 10000 0 100000 90000 80000 70000 60000 50000 40000 30000 20000 10000 0 100000 90000 80000 70000 60000 50000 40000 30000 20000 10000 0 100000 90000 80000 70000 60000 50000 40000 30000 20000 10000 0 100000 90000 80000 70000 60000 50000 40000 30000 20000 10000 0 100000 90000 80000 70000 60000 50000 40000 30000 20000 10000 0 100000 90000 80000 70000 60000 50000 40000 30000 20000 10000 0 100000 90000 80000 70000 60000 50000 40000 30000 20000 10000 0 100000 90000 80000 70000 60000 50000 40000 30000 20000 10000 0 100000 90000 80000 70000 60000 50000 40000 30000 20000 10000 0 100000 90000 80000 70000 60000 50000 40000 30000 20000 10000 0 100000 90000 80000 70000 60000 50000 40000 30000 20000 10000 0 100000 90000 80000 70000 60000 50000 40000 30000 20000 10000 0 100000 90000 80000 70000 60000 50000 40000 30000 20000 10000 0 100000 90000 80000 70000 60000 50000 40000 30000 20000 10000 0 100000 90000 80000 70000 60000 50000 40000 30000 20000 10000 0 100000 90000 80000 70000 60000 50000 40000 30000 20000 10000 0 100000 90000 80000 70000 60000 50000 40000 30000 20000 10000 0 100000 90000 80000 70000 60000 50000 40000 30000 20000 10000 0 100000 90000 80000 70000 60000 50000 40000 30000 20000 10000 0 100000 90000 80000 70000 60000 50000 40000 30000 20000 10000 0 100000 90000 80000 70000 60000 50000 40000 30000 20000 10000 0 100000 90000 80000 70000 60000 50000 40000 30000 20000 10000 0 100000 90000 80000 70000 60000 50000 40000 30000 20000 10000 0 100000 90000 80000 70000 60000 50000 40000 30000 20000 10000 0 100000 90000 80000 70000 60000 50000 40000 30000 20000 10000 0 100000 90000 80000 70000 60000 50000 40000 30000 20000 10000 0 100000 90000 80000 70000 60000 50000 40000 30000 20000 10000 0 100000 90000 80000 70000 60000 50000 40000 30000 20000 10000 0 100000 90000 80000 70000 60000 50000 40000 30000 20000 10000 0 100000 90000 80000 70000 60000 50000 40000 30000 20000 10000 0 100000 90000 80000 70000 60000 50000 40000 30000 20000 10000 0 100000 90000 80000 70000 60000 50000 40000 30000 20000 10000 0 100000 90000 80000 70000 60000 50000 40000 30000 20000 10000 0 100000 90000 80000 70000 60000 50000 40000 30000 20000 10000 0 100000 90000 80000 70000 60000 50000 40000 30000 20000 10000 0 100000 90000 80000 70000 60000 50000 40000 30000 20000 10000 0 100000 90000 80000 70000 60000 50000 40000 30000 20000 10000 0 100000 90000 80000 70000 60000 50000 40000 30000 20000 10000 0 100000 90000 80000 70000 60000 50000 40000 30000 20000 10000 0 100000 90000 80000 70000 60000 50000 40000 30000 20000 10000 0 100000 90000 80000 70000 60000 50000 40000 30000 20000 10000 0 100000 90000 80000 70000 60000 50000 40000 30000 20000 10000 0 100000 90000 80000 70000 60000 50000 40000 30000 20000 10000 0 100000 90000 80000 70000 60000 50000 40000 30000 20000 10000 0 100000 90000 80000 70000 60000 50000 40000 30000 20000 10000 0 100000 90000 80000 70000 60000 50000 40000 30000 20000 10000 0 100000 90000 80000 70000 60000 50000 40000 30000 20000 10000 0 100000 90000 80000 70000 60000 50000 40000 30000 20000 10000 0 100000 90000 80000 70000 60000 50000 40000 30000 20000 10000 0 100000 90000 80000 70000 60000 50000 40000 30000 20000 10000 0 100000 90000 80000 70000 60000 50000 40000 30000 20000 10000 0 100000 90000 80000 70000 60000 50000 40000 30000 20000 10000 0 100000 90000 80000 70000 60000 50000 40000 30000 20000 10000 0 100000 90000 80000 70000 60000 50000 40000 30000 20000 10000 0 100000 90000 80000 70000 60000 50000 40000 30000 20000 10000 0 100000 90000 80000 70000 60000 50000 40000 30000 20000 10000 0 100000 90000 80000 70000 60000 50000 40000 30000 20000 10000 0 100000 90000 80000 70000 60000 50000 40000 30000 20000 10000 0 100000 90000 80000 70000 60000 50000 40000 30000 20000 10000 0 100000 90000 80000 70000 60000 50000 40000 30000 20000 10000 0 100000 90000 80000 70000 60000 50000 40000 30000 20000 10000 0 100000 90000 80000 70000 60000 50000 40000 30000 20000 10000 0 100000 90000 80000 70000 60000 50000 40000 30000 20000 10000 0 100000 90000 80000 70000 60000 50000 40000 30000 20000 10000 0 100000 90000 80000 70000 60000 50000 40000 30000 20000 10000 0 100000 90000 80000 70000 60000 50000 40000 30000 20000 10000 0 100000 90000 80000 70000 60000 50000 40000 30000 20000 10000 0 
</DataArray>
<DataArray Name="Temperature" format="ascii" type="Float64">
1601 1600.9 1600.8 1600.7 1600.6 1600.5 1600.4 1600.3 1600.2 1600.1 1600 1601 1600.9 1600.8 1600.7 1600.6 1600.5 1600.4 1600.3 1600.2 1600.1 1600 1601 1600.9 1600.8 1600.7 1600.6 1600.5 1600.4 1600.3 1600.2 1600.1 1600 1601 1600.9 1600.8 1600.7 1600.6 1600.5 1600.4 1600.3 1600.2 1600.1 1600 1601 1600.9 1600.8 1600.7 1600.6 1600.5 1600.4 1600.3 1600.2 1600.1 1600 1601 1600.9 1600.8 1600.7 1600.6 1600.5 1600.4 1600.3 1600.2 1600.1 1600 1601 1600.9 1600.8 1600.7 1600.6 1600.5 1600.4 1600.3 1600.2 1600.1 1600 1601 1600.9 1600.8 1600.7 1600.6 1600.5 1600.4 1600.3 1600.2 1600.1 1600 1601 1600.9 1600.8 1600.7 1600.6 1600.5 1600.4 1600.3 1600.2 1600.1 1600 1601 1600.9 1600.8 1600.7 1600.6 1600.5 1600.4 1600.3 1600.2 1600.1 1600 1601 1600.9 1600.8 1600.7 1600.6 1600.5 1600.4 1600.3 1600.2 1600.1 1600 1601 1600.9 1600.8 1600.7 1600.6 1600.5 1600.4 1600.3 1600.2 1600.1 1600 1601 1600.9 1600.8 1600.7 1600.6 1600.5 1600.4 1600.3 1600.2 1600.1 1600 1601 1600.9 1600.8 1600.7 1600.6 1600.5 1600.4 1600.3 1600.2 1600.1 1600 1601 1600.9 1600.8 1600.7 1600.6 1600.5 1600.4 1600.3 1800.2 1600.1 1600 1601 1600.9 1600.8 1600.7 1600.6 1600.5 1600.4 1600.3 1800.2 1800.1 1600 1601 1600.9 1600.8 1600.7 1600.6 1600.5 1600.4 1600.3 1800.2 1800.1 1800 1601 1600.9 1600.8 1600.7 1600.6 1600.5 1600.4 1600.3 1800.2 1800.1 1600 1601 1600.9 1600.8 1600.7 1600.6 1600.5 1600.4 1600.3 1800.2 1600.1 1600 1601 1600.9 1600.8 1600.7 1600.6 1600.5 1600.4 1600.3 1600.2 1600.1 1600 1601 1600.9 1600.8 1600.7 1600.6 1600.5 1600.4 1600.3 1600.2 1600.1 1600 1601 1600.9 1600.8 1600.7 1600.6 1600.5 1600.4 1600.3 1600.2 1600.1 1600 1601 1600.9 1600.8 1600.7 1600.6 1600.5 1600.4 1600.3 1600.2 1600.1 1600 1601 1600.9 1600.8 1600.7 1600.6 1600.5 1600.4 1600.3 1600.2 1600.1 1600 1601 1600.9 1600.8 1600.7 1600.6 1600.5 1600.4 1600.3 1800.2 1600.1 1600 1601 1600.9 1600.8 1600.7 1600.6 1600.5 1600.4 1800.3 1800.2 1800.1 1600 1601 1600.9 1600.8 1600.7 1600.6 1600.5 1600.4 1800.3 1800.2 1800.1 1800 1601 1600.9 1600.8 1600.7 1600.6 1600.5 1600.4 1800.3 1800.2 1800.1 1800 1601 1600.9 1600.8 1600.7 1600.6 1600.5 1600.4 1800.3 1800.2 1800.1 1800 1601 1600.9 1600.8 1600.7 1600.6 1600.5 1600.4 1800.3 1800.2 1800.1 1600 1601 1600.9 1600.8 1600.7 1600.6 1600.5 1600.4 1600.3 1800.2 1600.1 1600 1601 1600.9 1600.8 1600.7 1600.6 1600.5 1600.4 1600.3 1600.2 1600.1 1600 1601 1600.9 1600.8 1600.7 1600.6 1600.5 1600.4 1600.3 1600.2 1600.1 1600 1601 1600.9 1600.8 1600.7 1600.6 1600.5 1600.4 1600.3 1600.2 1600.1 1600 1601 1600.9 1600.8 1600.7 1600.6 1600.5 1600.4 1600.3 1600.2 1600.1 1600 1601 1600.9 1600.8 1600.7 1600.6 1600.5 1600.4 1800.3 1800.2 1600.1 1600 1601 1600.9 1800.8 1800.7 1600.6 1600.5 1600.4 1800.3 1800.2 1800.1 1800 1601 1600.9 1800.8 1800.7 1600.6 1600.5 1800.4 1800.3 1800.2 1800.1 1800 1601 1600.9 1600.8 1800.7 1600.6 1600.5 1800.4 1800.3 1800.2 1800.1 1800 1601 1600.9 1600.8 1600.7 1600.6 1600.5 1800.4 1800.3 1800.2 1800.1 1800 1601 1600.9 1600.8 1600.7 1600.6 1600.5 1600.4 1800.3 1800.2 1800.1 1800 1601 1600.9 1600.8 1600.7 1600.6 1600.5 1600.4 1800.3 1800.2 1600.1 1600 1601 1600.9 1600.8 1600.7 1600.6 1600.5 1600.4 1600.3 1600.2 1600.1 1600 1601 1600.9 1600.8 1600.7 1600.6 1600.5 1600.4 1600.3 1600.2 1600.1 1600 1601 1600.9 1600.8 1600.7 1600.6 1600.5 1600.4 1600.3 1600.2 1600.1 1600 1601 1800.9 1800.8 1600.7 1600.6 1600.5 1600.4 1600.3 1600.2 1600.1 1600 1601 1800.9 1800.8 1800.7 1600.6 1600.5 1600.4 1800.3 1800.2 1600.1 1600 1601 1800.9 1800.8 1800.7 1800.6 1600.5 1800.4 1800.3 1800.2 1800.1 1600 1601 1800.9 1800.8 1800.7 1800.6 1600.5 1800.4 1800.3 1800.2 1800.1 1800 1601 1600.9 1800.8 1800.7 1800.6 1600.5 1800.4 1800.3 1800.2 1800.1 1800 1601 1600.9 1800.8 1800.7 1800.6 1600.5 1800.4 1800.3 1800.2 1800.1 1800 1601 1600.9 1600.8 1800.7 1600.6 1600.5 1800.4 1800.3 1800.2 1800.1 1600 1601 1600.9 1600.8 1600.7 1600.6 1600.5 1600.4 1800.3 1800.2 1600.1 1600 1601 1600.9 1600.8 1600.7 1600.6 1600.5 1600.4 1600.3 1600.2 1600.1 1600 1601 1600.9 1600.8 1600.7 1600.6 1600.5 1600.4 1600.3 1600.2 1600.1 1600 1601 1600.9 1600.8 1600.7 1600.6 1600.5 1600.4 1600.3 1600.2 1600.1 1600 1601 1800.9 1800.8 1800.7 1600.6 1600.5 1600.4 1600.3 1600.2 1600.1 1600 1801 1800.9 1800.8 1800.7 1600.6 1600.5 1600.4 1800.3 1800.2 1600.1 1600 1801 1800.9 1800.8 1800.7 1800.6 1600.5 1800.4 1800.3 1800.2 1800.1 1600 1801 1800.9 1800.8 1800.7 1800.6 1600.5 1800.4 1800.3 1800.2 1800.1 1600 1601 1800.9 1800.8 1800.7 1800.6 1800.5 1800.4 1800.3 1800.2 1800.1 1800 1601 1800.9 1800.8 1800.7 1800.6 1600.5 1800.4 1800.3 1800.2 1800.1 1600 1601 1600.9 1800.8 1800.7 1600.6 1600.5 1800.4 1800.3 1800.2 1800.1 1600 1601 1600.9 1600.8 1600.7 1600.6 1600.5 1600.4 1800.3 1800.2 1600.1 1600 1601 1600.9 1600.8 1600.7 1600.6 1600.5 1600.4 1600.3 1600.2 1600.1 1600 1601 1600.9 1600.8 1600.7 1600.6 1600.5 1600.4 1600.3 1600.2 1600.1 1600 1601 1600.9 1600.8 1600.7 1600.6 1600.5 1600.4 1600.3 1600.2 1600.1 1600 1601 1600.9 1800.8 1600.7 1600.6 1600.5 1600.4 1600.3 1600.2 1600.1 1600 1601 1800.9 1800.8 1800.7 1600.6 1600.5 1600.4 1600.3 1600.2 1600.1 1600 1601 1800.9 1800.8 1800.7 1800.6 1600.5 1600.4 1800.3 1800.2 1600.1 1600 1601 1800.9 1800.8 1800.7 1800.6 1600.5 1800.4 1800.3 1800.2 1800.1 1600 1601 1800.9 1800.8 1800.7 1800.6 1600.5 1800.4 1800.3 1800.2 1800.1 1600 1601 1600.9 1800.8 1800.7 1800.6 1600.5 1800.4 1800.3 1800.2 1600.1 1600 1601 1600.9 1800.8 1800.7 1600.6 1600.5 1600.4 1800.3 1800.2 1600.1 1600 1601 1600.9 1600.8 1600.7 1600.6 1600.5 1600.4 1600.3 1600.2 1600.1 1600 1601 1600.9 1600.8 1600.7 1600.6 1600.5 1600.4 1600.3 1600.2 1600.1 1600 1601 1600.9 1600.8 1600.7 1600.6 1600.5 1600.4 1600.3 1600.2 1600.1 1600 1601 1600.9 1600.8 1600.7 1600.6 1600.5 1600.4 1600.3 1600.2 1600.1 1600 1601 1600.9 1600.8 1600.7 1600.6 1600.5 1600.4 1600.3 1600.2 1600.1 1600 1601 1600.9 1600.8 1600.7 1600.6 1600.5 1600.4 1600.3 1600.2 1600.1 1600 1601 1600.9 1600.8 1600.7 1600.6 1600.5 1600.4 1600.3 1600.2 1600.1 1600 1601 1600.9 1800.8 1800.7 1600.6 1600.5 1600.4 1800.3 1800.2 1600.1 1600 1601 1600.9 1800.8 1800.7 1600.6 1600.5 1600.4 1800.3 1800.2 1600.1 1600 1601 1600.9 1600.8 1600.7 1600.6 1600.5 1600.4 1800.3 1800.2 1600.1 1600 1601 1600.9 1600.8 1600.7 1600.6 1600.5 1600.4 1600.3 1600.2 1600.1 1600 1601 1600.9 1600.8 1600.7 1600.6 1600.5 1600.4 1600.3 1600.2 1600.1 1600 1601 1600.9 1600.8 1600.7 1600.6 1600.5 1600.4 1600.3 1600.2 1600.1 1600 1601 1600.9 1600.8 1600.7 1600.6 1600.5 1600.4 1600.3 1600.2 1600.1 1600 1601 1600.9 1600.8 1600.7 1600.6 1600.5 1600.4 1600.3 1600.2 1600.1 1600 1601 1600.9 1600.8 1600.7 1600.6 1600.5 1600.4 1600.3 1600.2 1600.1 1600 1601 1600.9 1600.8 1600.7 1600.6 1600.5 1600.4 1600.3 1600.2 1600.1 1600 1601 1600.9 1600.8 1600.7 1600.6 1600.5 1600.4 1600.3 1600.2 1600.1 1600 1601 1600.9 1600.8 1600.7 1600.6 1600.5 1600.4 1600.3 1600.2 1600.1 1600 1601 1600.9 1600.8 1600.7 1600.6 1600.5 1600.4 1600.3 1600.2 1600.1 1600 1601 1600.9 1600.8 1600.7 1600.6 1600.5 1600.4 1600.3 1600.2 1600.1 1600 1601 1600.9 1600.8 1600.7 1600.6 1600.5 1600.4 1600.3 1600.2 1600.1 1600 1601 1600.9 1600.8 1600.7 1600.6 1600.5 1600.4 1600.3 1600.2 1600.1 1600 1601 1600.9 1600.8 1600.7 1600.6 1600.5 1600.4 1600.3 1600.2 1600.1 1600 1601 1600.9 1600.8 1600.7 1600.6 1600.5 1600.4 1600.3 1600.2 1600.1 1600 1601 1600.9 1600.8 1600.7 1600.6 1600.5 1600.4 1600.3 1600.2 1600.1 1600 1601 1600.9 1600.8 1600.7 1600.6 1600.5 1600.4 1600.3 1600.2 1600.1 1600 1601 1600.9 1600.8 1600.7 1600.6 1600.5 1600.4 1600.3 1600.2 1600.1 1600 1601 1600.9 1600.8 1600.7 1600.6 1600.5 1600.4 1600.3 1600.2 1600.1 1600 1601 1600.9 1600.8 1600.7 1600.6 1600.5 1600.4 1600.3 1600.2 1600.1 1600 1601 1600.9 1600.8 1600.7 1600.6 1600.5 1600.4 1600.3 1600.2 1600.1 1600 1601 1600.9 1600.8 1600.7 1600.6 1600.5 1600.4 1600.3 1600.2 1600.1 1600 1601 1600.9 1600.8 1600.7 1600.6 1600.5 1600.4 1600.3 1600.2 1600.1 1600 1601 1600.9 1600.8 1600.7 1600.6 1600.5 1600.4 1600.3 1600.2 1600.1 1600 1601 1600.9 1600.8 1600.7 1600.6 1600.5 1600.4 1600.3 1600.2 1600.1 1600 1601 1600.9 1600.8 1600.7 1600.6 1600.5 1600.4 1600.3 1600.2 1600.1 1600 1601 1600.9 1600.8 1600.7 1600.6 1600.5 1600.4 1600.3 1600.2 1600.1 1600 1601 1600.9 1600.8 1600.7 1600.6 1600.5 1600.4 1600.3 1600.2 1600.1 1600 1601 1600.9 1600.8 1600.7 1600.6 1600.5 1600.4 1600.3 1600.2 1600.1 1600 1601 1600.9 1600.8 1600.7 1600.6 1600.5 1600.4 1600.3 1600.2 1600.1 1600 1601 1600.9 1600.8 1600.7 1600.6 1600.5 1600.4 1600.3 1600.2 1600.1 1600 1601 1600.9 1600.8 1600.7 1600.6 1600.5 1600.4 1600.3 1600.2 1600.1 1600 1601 1600.9 1600.8 1600.7 1600.6 1600.5 1600.4 1600.3 1600.2 1600.1 1600 1601 1600.9 1600.8 1600.7 1600.6 1600.5 1600.4 1600.3 1600.2 1600.1 1600 1601 1600.9 1600.8 1600.7 1600.6 1600.5 1600.4 1600.3 1600.2 1600.1 1600 1601 1600.9 1600.8 1600.7 1600.6 1600.5 1600.4 1600.3 1600.2 1600.1 1600 1601 1600.9 1600.8 1600.7 1600.6 1600.5 1600.4 1600.3 1600.2 1600.1 1600 
</DataArray>
<DataArray Name="Tag" format="ascii" type="Float64">
0 0 0 0 0 0 0 0 0 0 0 0 0 0 0 0 0 0 0 0 0 0 0 0 0 0 0 0 0 0 0 0 0 0 0 0 0 0 0 0 0 0 0 0 0 0 0 0 0 0 0 0 0 0 0 0 0 0 0 0 0 0 0 0 0 0 0 0 0 0 0 0 0 0 0 0 0 0 0 0 0 0 0 0 0 0 0 0 0 0 0 0 0 0 0 0 0 0 0 0 0 0 0 0 0 0 0 0 0 0 0 0 0 0 0 0 0 0 0 0 0 0 0 0 0 0 0 0 0 0 0 0 0 0 0 0 0 0 0 0 0 0 0 0 0 0 0 0 0 0 0 0 0 0 0 0 0 0 0 0 0 0 1 0 0 0 0 0 0 0 0 0 0 1 1 0 0 0 0 0 0 0 0 0 1 1 1 0 0 0 0 0 0 0 0 1 1 0 0 0 0 0 0 0 0 0 1 0 0 0 0 0 0 0 0 0 0 0 0 0 0 0 0 0 0 0 0 0 0 0 0 0 0 0 0 0 0 0 0 0 0 0 0 0 0 0 0 0 0 0 0 0 0 0 0 0 0 0 0 0 0 0 0 0 0 0 0 0 0 0 0 0 1 0 0 0 0 0 0 0 0 0 1 1 1 0 0 0 0 0 0 0 0 1 1 1 1 0 0 0 0 0 0 0 1 1 1 1 0 0 0 0 0 0 0 1 1 1 1 0 0 0 0 0 0 0 1 1 1 0 0 0 0 0 0 0 0 0 1 0 0 0 0 0 0 0 0 0 0 0 0 0 0 0 0 0 0 0 0 0 0 0 0 0 0 0 0 0 0 0 0 0 0 0 0 0 0 0 0 0 0 0 0 0 0 0 0 0 0 0 0 0 1 1 0 0 0 0 1 1 0 0 0 1 1 1 1 0 0 1 1 0 0 1 1 1 1 1 0 0 0 1 0 0 1 1 1 1 1 0 0 0 0 0 0 1 1 1 1 1 0 0 0 0 0 0 0 1 1 1 1 0 0 0 0 0 0 0 1 1 0 0 0 0 0 0 0 0 0 0 0 0 0 0 0 0 0 0 0 0 0 0 0 0 0 0 0 0 0 0 0 0 0 0 0 0 1 1 0 0 0 0 0 0 0 0 0 1 1 1 0 0 0 1 1 0 0 0 1 1 1 1 0 1 1 1 1 0 0 1 1 1 1 0 1 1 1 1 1 0 0 1 1 1 0 1 1 1 1 1 0 0 1 1 1 0 1 1 1 1 1 0 0 0 1 0 0 1 1 1 1 0 0 0 0 0 0 0 0 1 1 0 0 0 0 0 0 0 0 0 0 0 0 0 0 0 0 0 0 0 0 0 0 0 0 0 0 0 0 0 0 0 0 0 0 0 0 1 1 1 0 0 0 0 0 0 0 1 1 1 1 0 0 0 1 1 0 0 1 1 1 1 1 0 1 1 1 1 0 1 1 1 1 1 0 1 1 1 1 0 0 1 1 1 1 1 1 1 1 1 1 0 1 1 1 1 0 1 1 1 1 0 0 0 1 1 0 0 1 1 1 1 0 0 0 0 0 0 0 0 1 1 0 0 0 0 0 0 0 0 0 0 0 0 0 0 0 0 0 0 0 0 0 0 0 0 0 0 0 0 0 0 0 0 0 0 0 0 0 1 0 0 0 0 0 0 0 0 0 1 1 1 0 0 0 0 0 0 0 0 1 1 1 1 0 0 1 1 0 0 0 1 1 1 1 0 1 1 1 1 0 0 1 1 1 1 0 1 1 1 1 0 0 0 1 1 1 0 1 1 1 0 0 0 0 1 1 0 0 0 1 1 0 0 0 0 0 0 0 0 0 0 0 0 0 0 0 0 0 0 0 0 0 0 0 0 0 0 0 0 0 0 0 0 0 0 0 0 0 0 0 0 0 0 0 0 0 0 0 0 0 0 0 0 0 0 0 0 0 0 0 0 0 0 0 0 0 0 0 0 0 0 0 0 0 0 0 0 0 0 0 0 0 1 1 0 0 0 1 1 0 0 0 0 1 1 0 0 0 1 1 0 0 0 0 0 0 0 0 0 1 1 0 0 0 0 0 0 0 0 0 0 0 0 0 0 0 0 0 0 0 0 0 0 0 0 0 0 0 0 0 0 0 0 0 0 0 0 0 0 0 0 0 0 0 0 0 0 0 0 0 0 0 0 0 0 0 0 0 0 0 0 0 0 0 0 0 0 0 0 0 0 0 0 0 0 0 0 0 0 0 0 0 0 0 0 0 0 0 0 0 0 0 0 0 0 0 0 0 0 0 0 0 0 0 0 0 0 0 0 0 0 0 0 0 0 0 0 0 0 0 0 0 0 0 0 0 0 0 0 0 0 0 0 0 0 0 0 0 0 0 0 0 0 0 0 0 0 0 0 0 0 0 0 0 0 0 0 0 0 0 0 0 0 0 0 0 0 0 0 0 0 0 0 0 0 0 0 0 0 0 0 0 0 0 0 0 0 0 0 0 0 0 0 0 0 0 0 0 0 0 0 0 0 0 0 0 0 0 0 0 0 0 0 0 0 0 0 0 0 0 0 0 0 0 0 0 0 0 0 0 0 0 0 0 0 0 0 0 0 0 0 0 0 0 0 0 0 0 0 0 0 0 0 0 0 0 0 0 0 0 0 0 0 0 0 0 0 0 0 0 0 0 0 0 0 0 0 0 0 0 0 0 0 0 0 0 0 0 0 0 0 0 0 0 0 0 0 0 0 0 0 0 0 0 0 0 0 0 0 0 0 0 0 0 0 0 0 0 0 0 0 0 0 0 0 0 0 0 0 0 0 0 0 0 0 0 0 0 0 0 0 0 0 0 0 0 0 0 0 0 0 0 0 0 0 0 0 0 0 0 0 0 0 0 0 0 0 0 0 0 0 0 0 0 0 0 0 0 0 0 0 0 0 0 0 0 0 0 0 0 0 0 0 0 0 0 0 0 0 0 0 0 0 0 0 0 0 0 0 0 
</DataArray>
</PointData>
<CellData>
</CellData>
<Points>
<DataArray NumberOfComponents="3" format="ascii" type="Float64">