<?xml version="1.0"?>
<VTKFile byte_order="LittleEndian" type="UnstructuredGrid" version="0.1">
<UnstructuredGrid>
<Piece NumberOfCells="1728" NumberOfPoints="2197">
<PointData>
<DataArray Name="Depth" format="ascii" type="Float64">
2e+06 1.83333e+06 1.66667e+06 1.5e+06 1.33333e+06 1.16667e+06 1e+06 833333 666667 500000 333333 166667 0 2e+06 1.83333e+06 1.66667e+06 1.5e+06 1.33333e+06 1.16667e+06 1e+06 833333 666667 500000 333333 166667 0 2e+06 1.83333e+06 1.66667e+06 1.5e+06 1.33333e+06 1.16667e+06 1e+06 833333 666667 500000 333333 166667 0 2e+06 1.83333e+06 1.66667e+06 1.5e+06 1.33333e+06 1.16667e+06 1e+06 833333 666667 500000 333333 166667 0 2e+06 1.83333e+06 1.66667e+06 1.5e+06 1.33333e+06 1.16667e+06 1e+06 833333 666667 500000 333333 166667 0 2e+06 1.83333e+06 1.66667e+06 1.5e+06 1.33333e+06 1.16667e+06 1e+06 833333 666667 500000 333333 166667 0 2e+06 1.83333e+06 1.66667e+06 1.5e+06 1.33333e+06 1.16667e+06 1e+06 833333 666667 500000 333333 166667 0 2e+06 1.83333e+06 1.66667e+06 1.5e+06 1.33333e+06 1.16667e+06 1e+06 833333 666667 500000 333333 166667 0 2e+06 1.83333e+06 1.66667e+06 1.5e+06 1.33333e+06 1.16667e+06 1e+06 833333 666667 500000 333333 166667 0 2e+06 1.83333e+06 1.66667e+06 1.5e+06 1.33333e+06 1.16667e+06 1e+06 833333 666667 500000 333333 166667 0 2e+06 1.83333e+06 1.66667e+06 1.5e+06 1.33333e+06 1.16667e+06 1e+06 833333 666667 500000 333333 166667 0 2e+06 1.83333e+06 1.66667e+06 1.5e+06 1.33333e+06 1.16667e+06 1e+06 833333 666667 500000 333333 166667 0 2e+06 1.83333e+06 1.66667e+06 1.5e+06 1.33333e+06 1.16667e+06 1e+06 833333 666667 500000 333333 166667 0 2e+06 1.83333e+06 1.66667e+06 1.5e+06 1.33333e+06 1.16667e+06 1e+06 833333 666667 500000 333333 166667 0 2e+06 1.83333e+06 1.66667e+06 1.5e+06 1.33333e+06 1.16667e+06 1e+06 833333 666667 500000 333333 166667 0 2e+06 1.83333e+06 1.66667e+06 1.5e+06 1.33333e+06 1.16667e+06 1e+06 833333 666667 500000 333333 166667 0 2e+06 1.83333e+06 1.66667e+06 1.5e+06 1.33333e+06 1.16667e+06 1e+06 833333 666667 500000 333333 166667 0 2e+06 1.83333e+06 1.66667e+06 1.5e+06 1.33333e+06 1.16667e+06 1e+06 833333 666667 500000 333333 166667 0 2e+06 1.83333e+06 1.66667e+06 1.5e+06 1.33333e+06 1.16667e+06 1e+06 833333 666667 500000 333333 166667 0 2e+06 1.83333e+06 1.66667e+06 1.5e+06 1.33333e+06 1.16667e+06 1e+06 833333 666667 500000 333333 166667 0 2e+06 1.83333e+06 1.66667e+06 1.5e+06 1.33333e+06 1.16667e+06 1e+06 833333 666667 500000 333333 166667 0 2e+06 1.83333e+06 1.66667e+06 1.5e+06 1.33333e+06 1.16667e+06 1e+06 833333 666667 500000 333333 166667 0 2e+06 1.83333e+06 1.66667e+06 1.5e+06 1.33333e+06 1.16667e+06 1e+06 833333 666667 500000 333333 166667 0 2e+06 1.83333e+06 1.66667e+06 1.5e+06 1.33333e+06 1.16667e+06 1e+06 833333 666667 500000 333333 166667 0 2e+06 1.83333e+06 1.66667e+06 1.5e+06 1.33333e+06 1.16667e+06 1e+06 833333 666667 500000 333333 166667 0 2e+06 1.83333e+06 1.66667e+06 1.5e+06 1.33333e+06 1.16667e+06 1e+06 833333 666667 500000 333333 166667 0 2e+06 1.83333e+06 1.66667e+06 1.5e+06 1.33333e+06 1.16667e+06 1e+06 833333 666667 500000 333333 166667 0 2e+06 1.83333e+06 1.66667e+06 1.5e+06 1.33333e+06 1.16667e+06 1e+06 833333 666667 500000 333333 166667 0 2e+06 1.83333e+06 1.66667e+06 1.5e+06 1.33333e+06 1.16667e+06 1e+06 833333 666667 500000 333333 166667 0 2e+06 1.83333e+06 1.66667e+06 1.5e+06 1.33333e+06 1.16667e+06 1e+06 833333 666667 500000 333333 166667 0 2e+06 1.83333e+06 1.66667e+06 1.5e+06 1.33333e+06 1.16667e+06 1e+06 833333 666667 500000 333333 166667 0 2e+06 1.83333e+06 1.66667e+06 1.5e+06 1.33333e+06 1.16667e+06 1e+06 833333 666667 500000 333333 166667 0 2e+06 1.83333e+06 1.66667e+06 1.5e+06 1.33333e+06 1.16667e+06 1e+06 833333 666667 500000 333333 166667 0 2e+06 1.83333e+06 1.66667e+06 1.5e+06 1.33333e+06 1.16667e+06 1e+06 833333 666667 500000 333333 166667 0 2e+06 1.83333e+06 1.66667e+06 1.5e+06 1.33333e+06 1.16667e+06 1e+06 833333 666667 500000 333333 166667 0 2e+06 1.83333e+06 1.66667e+06 1.5e+06 1.33333e+06 1.16667e+06 1e+06 833333 666667 500000 333333 166667 0 2e+06 1.83333e+06 1.66667e+06 1.5e+06 1.33333e+06 1.16667e+06 1e+06 833333 666667 500000 333333 166667 0 2e+06 1.83333e+06 1.66667e+06 1.5e+06 1.33333e+06 1.16667e+06 1e+06 833333 666667 500000 333333 166667 0 2e+06 1.83333e+06 1.66667e+06 1.5e+06 1.33333e+06 1.16667e+06 1e+06 833333 666667 500000 333333 166667 0 2e+06 1.83333e+06 1.66667e+06 1.5e+06 1.33333e+06 1.16667e+06 1e+06 833333 666667 500000 333333 166667 0 2e+06 1.83333e+06 1.66667e+06 1.5e+06 1.33333e+06 1.16667e+06 1e+06 833333 666667 500000 333333 166667 0 2e+06 1.83333e+06 1.66667e+06 1.5e+06 1.33333e+06 1.16667e+06 1e+06 833333 666667 500000 333333 166667 0 2e+06 1.83333e+06 1.66667e+06 1.5e+06 1.33333e+06 1.16667e+06 1e+06 833333 666667 500000 333333 166667 0 2e+06 1.83333e+06 1.66667e+06 1.5e+06 1.33333e+06 1.16667e+06 1e+06 833333 666667 500000 333333 166667 0 2e+06 1.83333e+06 1.66667e+06 1.5e+06 1.33333e+06 1.16667e+06 1e+06 833333 666667 500000 333333 166667 0 2e+06 1.83333e+06 1.66667e+06 1.5e+06 1.33333e+06 1.16667e+06 1e+06 833333 666667 500000 333333 166667 0 2e+06 1.83333e+06 1.66667e+06 1.5e+06 1.33333e+06 1.16667e+06 1e+06 833333 666667 500000 333333 166667 0 2e+06 1.83333e+06 1.66667e+06 1.5e+06 1.33333e+06 1.16667e+06 1e+06 833333 666667 500000 333333 166667 0 2e+06 1.83333e+06 1.66667e+06 1.5e+06 1.33333e+06 1.16667e+06 1e+06 833333 666667 500000 333333 166667 0 2e+06 1.83333e+06 1.66667e+06 1.5e+06 1.33333e+06 1.16667e+06 1e+06 833333 666667 500000 333333 166667 0 2e+06 1.83333e+06 1.66667e+06 1.5e+06 1.33333e+06 1.16667e+06 1e+06 833333 666667 500000 333333 166667 0 2e+06 1.83333e+06 1.66667e+06 1.5e+06 1.33333e+06 1.16667e+06 1e+06 833333 666667 500000 333333 166667 0 2e+06 1.83333e+06 1.66667e+06 1.5e+06 1.33333e+06 1.16667e+06 1e+06 833333 666667 500000 333333 166667 0 2e+06 1.83333e+06 1.66667e+06 1.5e+06 1.33333e+06 1.16667e+06 1e+06 833333 666667 500000 333333 166667 0 2e+06 1.83333e+06 1.66667e+06 1.5e+06 1.33333e+06 1.16667e+06 1e+06 833333 666667 500000 333333 166667 0 2e+06 1.83333e+06 1.66667e+06 1.5e+06 1.33333e+06 1.16667e+06 1e+06 833333 666667 500000 333333 166667 0 2e+06 1.83333e+06 1.66667e+06 1.5e+06 1.33333e+06 1.16667e+06 1e+06 833333 666667 500000 333333 166667 0 2e+06 1.83333e+06 1.66667e+06 1.5e+06 1.33333e+06 1.16667e+06 1e+06 833333 666667 500000 333333 166667 0 2e+06 1.83333e+06 1.66667e+06 1.5e+06 1.33333e+06 1.16667e+06 1e+06 833333 666667 500000 333333 166667 0 2e+06 1.83333e+06 1.66667e+06 1.5e+06 1.33333e+06 1.16667e+06 1e+06 833333 666667 500000 333333 166667 0 2e+06 1.83333e+06 1.66667e+06 1.5e+06 1.33333e+06 1.16667e+06 1e+06 833333 666667 500000 333333 166667 0 2e+06 1.83333e+06 1.66667e+06 1.5e+06 1.33333e+06 1.16667e+06 1e+06 833333 666667 500000 333333 166667 0 2e+06 1.83333e+06 1.66667e+06 1.5e+06 1.33333e+06 1.16667e+06 1e+06 833333 666667 500000 333333 166667 0 2e+06 1.83333e+06 1.66667e+06 1.5e+06 1.33333e+06 1.16667e+06 1e+06 833333 666667 500000 333333 166667 0 2e+06 1.83333e+06 1.66667e+06 1.5e+06 1.33333e+06 1.16667e+06 1e+06 833333 666667 500000 333333 166667 0 2e+06 1.83333e+06 1.66667e+06 1.5e+06 1.33333e+06 1.16667e+06 1e+06 833333 666667 500000 333333 166667 0 2e+06 1.83333e+06 1.66667e+06 1.5e+06 1.33333e+06 1.16667e+06 1e+06 833333 666667 500000 333333 166667 0 2e+06 1.83333e+06 1.66667e+06 1.5e+06 1.33333e+06 1.16667e+06 1e+06 833333 666667 500000 333333 166667 0 2e+06 1.83333e+06 1.66667e+06 1.5e+06 1.33333e+06 1.16667e+06 1e+06 833333 666667 500000 333333 166667 0 2e+06 1.83333e+06 1.66667e+06 1.5e+06 1.33333e+06 1.16667e+06 1e+06 833333 666667 500000 333333 166667 0 2e+06 1.83333e+06 1.66667e+06 1.5e+06 1.33333e+06 1.16667e+06 1e+06 833333 666667 500000 333333 166667 0 2e+06 1.83333e+06 1.66667e+06 1.5e+06 1.33333e+06 1.16667e+06 1e+06 833333 666667 500000 333333 166667 0 2e+06 1.83333e+06 1.66667e+06 1.5e+06 1.33333e+06 1.16667e+06 1e+06 833333 666667 500000 333333 166667 0 2e+06 1.83333e+06 1.66667e+06 1.5e+06 1.33333e+06 1.16667e+06 1e+06 833333 666667 500000 333333 166667 0 2e+06 1.83333e+06 1.66667e+06 1.5e+06 1.33333e+06 1.16667e+06 1e+06 833333 666667 500000 333333 166667 0 2e+06 1.83333e+06 1.66667e+06 1.5e+06 1.33333e+06 1.16667e+06 1e+06 833333 666667 500000 333333 166667 0 2e+06 1.83333e+06 1.66667e+06 1.5e+06 1.33333e+06 1.16667e+06 1e+06 833333 666667 500000 333333 166667 0 2e+06 1.83333e+06 1.66667e+06 1.5e+06 1.33333e+06 1.16667e+06 1e+06 833333 666667 500000 333333 166667 0 2e+06 1.83333e+06 1.66667e+06 1.5e+06 1.33333e+06 1.16667e+06 1e+06 833333 666667 500000 333333 166667 0 2e+06 1.83333e+06 1.66667e+06 1.5e+06 1.33333e+06 1.16667e+06 1e+06 833333 666667 500000 333333 166667 0 2e+06 1.83333e+06 1.66667e+06 1.5e+06 1.33333e+06 1.16667e+06 1e+06 833333 666667 500000 333333 166667 0 2e+06 1.83333e+06 1.66667e+06 1.5e+06 1.33333e+06 1.16667e+06 1e+06 833333 666667 500000 333333 166667 0 2e+06 1.83333e+06 1.66667e+06 1.5e+06 1.33333e+06 1.16667e+06 1e+06 833333 666667 500000 333333 166667 0 2e+06 1.83333e+06 1.66667e+06 1.5e+06 1.33333e+06 1.16667e+06 1e+06 833333 666667 500000 333333 166667 0 2e+06 1.83333e+06 1.66667e+06 1.5e+06 1.33333e+06 1.16667e+06 1e+06 833333 666667 500000 333333 166667 0 2e+06 1.83333e+06 1.66667e+06 1.5e+06 1.33333e+06 1.16667e+06 1e+06 833333 666667 500000 333333 166667 0 2e+06 1.83333e+06 1.66667e+06 1.5e+06 1.33333e+06 1.16667e+06 1e+06 833333 666667 500000 333333 166667 0 2e+06 1.83333e+06 1.66667e+06 1.5e+06 1.33333e+06 1.16667e+06 1e+06 833333 666667 500000 333333 166667 0 2e+06 1.83333e+06 1.66667e+06 1.5e+06 1.33333e+06 1.16667e+06 1e+06 833333 666667 500000 333333 166667 0 2e+06 1.83333e+06 1.66667e+06 1.5e+06 1.33333e+06 1.16667e+06 1e+06 833333 666667 500000 333333 166667 0 2e+06 1.83333e+06 1.66667e+06 1.5e+06 1.33333e+06 1.16667e+06 1e+06 833333 666667 500000 333333 166667 0 2e+06 1.83333e+06 1.66667e+06 1.5e+06 1.33333e+06 1.16667e+06 1e+06 833333 666667 500000 333333 166667 0 2e+06 1.83333e+06 1.66667e+06 1.5e+06 1.33333e+06 1.16667e+06 1e+06 833333 666667 500000 333333 166667 0 2e+06 1.83333e+06 1.66667e+06 1.5e+06 1.33333e+06 1.16667e+06 1e+06 833333 666667 500000 333333 166667 0 2e+06 1.83333e+06 1.66667e+06 1.5e+06 1.33333e+06 1.16667e+06 1e+06 833333 666667 500000 333333 166667 0 2e+06 1.83333e+06 1.66667e+06 1.5e+06 1.33333e+06 1.16667e+06 1e+06 833333 666667 500000 333333 166667 0 2e+06 1.83333e+06 1.66667e+06 1.5e+06 1.33333e+06 1.16667e+06 1e+06 833333 666667 500000 333333 166667 0 2e+06 1.83333e+06 1.66667e+06 1.5e+06 1.33333e+06 1.16667e+06 1e+06 833333 666667 500000 333333 166667 0 2e+06 1.83333e+06 1.66667e+06 1.5e+06 1.33333e+06 1.16667e+06 1e+06 833333 666667 500000 333333 166667 0 2e+06 1.83333e+06 1.66667e+06 1.5e+06 1.33333e+06 1.16667e+06 1e+06 833333 666667 500000 333333 166667 0 2e+06 1.83333e+06 1.66667e+06 1.5e+06 1.33333e+06 1.16667e+06 1e+06 833333 666667 500000 333333 166667 0 2e+06 1.83333e+06 1.66667e+06 1.5e+06 1.33333e+06 1.16667e+06 1e+06 833333 666667 500000 333333 166667 0 2e+06 1.83333e+06 1.66667e+06 1.5e+06 1.33333e+06 1.16667e+06 1e+06 833333 666667 500000 333333 166667 0 2e+06 1.83333e+06 1.66667e+06 1.5e+06 1.33333e+06 1.16667e+06 1e+06 833333 666667 500000 333333 166667 0 2e+06 1.83333e+06 1.66667e+06 1.5e+06 1.33333e+06 1.16667e+06 1e+06 833333 666667 500000 333333 166667 0 2e+06 1.83333e+06 1.66667e+06 1.5e+06 1.33333e+06 1.16667e+06 1e+06 833333 666667 500000 333333 166667 0 2e+06 1.83333e+06 1.66667e+06 1.5e+06 1.33333e+06 1.16667e+06 1e+06 833333 666667 500000 333333 166667 0 2e+06 1.83333e+06 1.66667e+06 1.5e+06 1.33333e+06 1.16667e+06 1e+06 833333 666667 500000 333333 166667 0 2e+06 1.83333e+06 1.66667e+06 1.5e+06 1.33333e+06 1.16667e+06 1e+06 833333 666667 500000 333333 166667 0 2e+06 1.83333e+06 1.66667e+06 1.5e+06 1.33333e+06 1.16667e+06 1e+06 833333 666667 500000 333333 166667 0 2e+06 1.83333e+06 1.66667e+06 1.5e+06 1.33333e+06 1.16667e+06 1e+06 833333 666667 500000 333333 166667 0 2e+06 1.83333e+06 1.66667e+06 1.5e+06 1.33333e+06 1.16667e+06 1e+06 833333 666667 500000 333333 166667 0 2e+06 1.83333e+06 1.66667e+06 1.5e+06 1.33333e+06 1.16667e+06 1e+06 833333 666667 500000 333333 166667 0 2e+06 1.83333e+06 1.66667e+06 1.5e+06 1.33333e+06 1.16667e+06 1e+06 833333 666667 500000 333333 166667 0 2e+06 1.83333e+06 1.66667e+06 1.5e+06 1.33333e+06 1.16667e+06 1e+06 833333 666667 500000 333333 166667 0 2e+06 1.83333e+06 1.66667e+06 1.5e+06 1.33333e+06 1.16667e+06 1e+06 833333 666667 500000 333333 166667 0 2e+06 1.83333e+06 1.66667e+06 1.5e+06 1.33333e+06 1.16667e+06 1e+06 833333 666667 500000 333333 166667 0 2e+06 1.83333e+06 1.66667e+06 1.5e+06 1.33333e+06 1.16667e+06 1e+06 833333 666667 500000 333333 166667 0 2e+06 1.83333e+06 1.66667e+06 1.5e+06 1.33333e+06 1.16667e+06 1e+06 833333 666667 500000 333333 166667 0 2e+06 1.83333e+06 1.66667e+06 1.5e+06 1.33333e+06 1.16667e+06 1e+06 833333 666667 500000 333333 166667 0 2e+06 1.83333e+06 1.66667e+06 1.5e+06 1.33333e+06 1.16667e+06 1e+06 833333 666667 500000 333333 166667 0 2e+06 1.83333e+06 1.66667e+06 1.5e+06 1.33333e+06 1.16667e+06 1e+06 833333 666667 500000 333333 166667 0 2e+06 1.83333e+06 1.66667e+06 1.5e+06 1.33333e+06 1.16667e+06 1e+06 833333 666667 500000 333333 166667 0 2e+06 1.83333e+06 1.66667e+06 1.5e+06 1.33333e+06 1.16667e+06 1e+06 833333 666667 500000 333333 166667 0 2e+06 1.83333e+06 1.66667e+06 1.5e+06 1.33333e+06 1.16667e+06 1e+06 833333 666667 500000 333333 166667 0 2e+06 1.83333e+06 1.66667e+06 1.5e+06 1.33333e+06 1.16667e+06 1e+06 833333 666667 500000 333333 166667 0 2e+06 1.83333e+06 1.66667e+06 1.5e+06 1.33333e+06 1.16667e+06 1e+06 833333 666667 500000 333333 166667 0 2e+06 1.83333e+06 1.66667e+06 1.5e+06 1.33333e+06 1.16667e+06 1e+06 833333 666667 500000 333333 166667 0 2e+06 1.83333e+06 1.66667e+06 1.5e+06 1.33333e+06 1.16667e+06 1e+06 833333 666667 500000 333333 166667 0 2e+06 1.83333e+06 1.66667e+06 1.5e+06 1.33333e+06 1.16667e+06 1e+06 833333 666667 500000 333333 166667 0 2e+06 1.83333e+06 1.66667e+06 1.5e+06 1.33333e+06 1.16667e+06 1e+06 833333 666667 500000 333333 166667 0 2e+06 1.83333e+06 1.66667e+06 1.5e+06 1.33333e+06 1.16667e+06 1e+06 833333 666667 500000 333333 166667 0 2e+06 1.83333e+06 1.66667e+06 1.5e+06 1.33333e+06 1.16667e+06 1e+06 833333 666667 500000 333333 166667 0 2e+06 1.83333e+06 1.66667e+06 1.5e+06 1.33333e+06 1.16667e+06 1e+06 833333 666667 500000 333333 166667 0 2e+06 1.83333e+06 1.66667e+06 1.5e+06 1.33333e+06 1.16667e+06 1e+06 833333 666667 500000 333333 166667 0 2e+06 1.83333e+06 1.66667e+06 1.5e+06 1.33333e+06 1.16667e+06 1e+06 833333 666667 500000 333333 166667 0 2e+06 1.83333e+06 1.66667e+06 1.5e+06 1.33333e+06 1.16667e+06 1e+06 833333 666667 500000 333333 166667 0 2e+06 1.83333e+06 1.66667e+06 1.5e+06 1.33333e+06 1.16667e+06 1e+06 833333 666667 500000 333333 166667 0 2e+06 1.83333e+06 1.66667e+06 1.5e+06 1.33333e+06 1.16667e+06 1e+06 833333 666667 500000 333333 166667 0 2e+06 1.83333e+06 1.66667e+06 1.5e+06 1.33333e+06 1.16667e+06 1e+06 833333 666667 500000 333333 166667 0 2e+06 1.83333e+06 1.66667e+06 1.5e+06 1.33333e+06 1.16667e+06 1e+06 833333 666667 500000 333333 166667 0 2e+06 1.83333e+06 1.66667e+06 1.5e+06 1.33333e+06 1.16667e+06 1e+06 833333 666667 500000 333333 166667 0 2e+06 1.83333e+06 1.66667e+06 1.5e+06 1.33333e+06 1.16667e+06 1e+06 833333 666667 500000 333333 166667 0 2e+06 1.83333e+06 1.66667e+06 1.5e+06 1.33333e+06 1.16667e+06 1e+06 833333 666667 500000 333333 166667 0 2e+06 1.83333e+06 1.66667e+06 1.5e+06 1.33333e+06 1.16667e+06 1e+06 833333 666667 500000 333333 166667 0 2e+06 1.83333e+06 1.66667e+06 1.5e+06 1.33333e+06 1.16667e+06 1e+06 833333 666667 500000 333333 166667 0 2e+06 1.83333e+06 1.66667e+06 1.5e+06 1.33333e+06 1.16667e+06 1e+06 833333 666667 500000 333333 166667 0 2e+06 1.83333e+06 1.66667e+06 1.5e+06 1.33333e+06 1.16667e+06 1e+06 833333 666667 500000 333333 166667 0 2e+06 1.83333e+06 1.66667e+06 1.5e+06 1.33333e+06 1.16667e+06 1e+06 833333 666667 500000 333333 166667 0 2e+06 1.83333e+06 1.66667e+06 1.5e+06 1.33333e+06 1.16667e+06 1e+06 833333 666667 500000 333333 166667 0 2e+06 1.83333e+06 1.66667e+06 1.5e+06 1.33333e+06 1.16667e+06 1e+06 833333 666667 500000 333333 166667 0 2e+06 1.83333e+06 1.66667e+06 1.5e+06 1.33333e+06 1.16667e+06 1e+06 833333 666667 500000 333333 166667 0 2e+06 1.83333e+06 1.66667e+06 1.5e+06 1.33333e+06 1.16667e+06 1e+06 833333 666667 500000 333333 166667 0 2e+06 1.83333e+06 1.66667e+06 1.5e+06 1.33333e+06 1.16667e+06 1e+06 833333 666667 500000 333333 166667 0 2e+06 1.83333e+06 1.66667e+06 1.5e+06 1.33333e+06 1.16667e+06 1e+06 833333 666667 500000 333333 166667 0 2e+06 1.83333e+06 1.66667e+06 1.5e+06 1.33333e+06 1.16667e+06 1e+06 833333 666667 500000 333333 166667 0 2e+06 1.83333e+06 1.66667e+06 1.5e+06 1.33333e+06 1.16667e+06 1e+06 833333 666667 500000 333333 166667 0 2e+06 1.83333e+06 1.66667e+06 1.5e+06 1.33333e+06 1.16667e+06 1e+06 833333 666667 500000 333333 166667 0 2e+06 1.83333e+06 1.66667e+06 1.5e+06 1.33333e+06 1.16667e+06 1e+06 833333 666667 500000 333333 166667 0 2e+06 1.83333e+06 1.66667e+06 1.5e+06 1.33333e+06 1.16667e+06 1e+06 833333 666667 500000 333333 166667 0 2e+06 1.83333e+06 1.66667e+06 1.5e+06 1.33333e+06 1.16667e+06 1e+06 833333 666667 500000 333333 166667 0 2e+06 1.83333e+06 1.66667e+06 1.5e+06 1.33333e+06 1.16667e+06 1e+06 833333 666667 500000 333333 166667 0 2e+06 1.83333e+06 1.66667e+06 1.5e+06 1.33333e+06 1.16667e+06 1e+06 833333 666667 500000 333333 166667 0 2e+06 1.83333e+06 1.66667e+06 1.5e+06 1.33333e+06 1.16667e+06 1e+06 833333 666667 500000 333333 166667 0 2e+06 1.83333e+06 1.66667e+06 1.5e+06 1.33333e+06 1.16667e+06 1e+06 833333 666667 500000 333333 166667 0 2e+06 1.83333e+06 1.66667e+06 1.5e+06 1.33333e+06 1.16667e+06 1e+06 833333 666667 500000 333333 166667 0 2e+06 1.83333e+06 1.66667e+06 1.5e+06 1.33333e+06 1.16667e+06 1e+06 833333 666667 500000 333333 166667 0 2e+06 1.83333e+06 1.66667e+06 1.5e+06 1.33333e+06 1.16667e+06 1e+06 833333 666667 500000 333333 166667 0 2e+06 1.83333e+06 1.66667e+06 1.5e+06 1.33333e+06 1.16667e+06 1e+06 833333 666667 500000 333333 166667 0 
</DataArray>
<DataArray Name="Temperature" format="ascii" type="Float64">
1600 1600 1600 1600 1600 1600 1600 1600 1600 1600 1600 1600 1600 1600 1600 1600 1600 1600 1600 1600 1600 1600 1600 1600 1600 1600 1600 1600 1600 1600 1600 1600 1600 1600 1600 1600 1600 1600 1600 1600 1600 1600 1600 1600 1600 1600 1600 1600 1600 1600 1600 1600 1600 1600 1600 1600 1600 1600 1600 1600 1600 1600 1600 1600 1600 1600 1600 1600 1600 1600 1600 1600 1600 1600 1600 1600 1600 1600 1600 1600 1600 1600 1600 1600 1600 1600 1600 1600 1600 1600 1600 1600 1600 1600 1600 1600 1600 1600 1600 1600 1600 1600 1600 1600 1600 1600 1600 1600 1600 1600 1600 1600 1600 1600 1600 1600 1600 1600 1600 1600 1600 1600 1600 1600 1600 1600 1600 1600 1600 1600 1600 1600 1600 1600 1600 1600 1600 1600 1600 1600 1600 1600 1600 1600 1600 1600 1600 1600 1600 1600 1600 1600 1600 1600 1600 1600 1600 1600 1600 1600 1600 1600 1600 1600 1600 1600 1600 1600 1600 1600 1600 1600 1600 1600 1600 1600 1600 1600 1600 1600 1600 1600 1600 1600 1600 1600 1600 1600 1600 1600 1600 1600 1600 1600 1600 1600 1600 1600 1600 1600 1600 1600 1600 1600 1600 1600 1600 1600 1600 1600 1600 1600 1600 1600 1600 1600 1600 1600 1600 1600 1600 1600 1600 1600 1600 1600 1600 1600 1600 1600 1600 1600 1600 1600 1600 1600 1600 1600 1600 1600 1600 1600 1600 1600 1600 1600 1600 1600 1600 1600 1600 1600 1600 1600 1600 1600 1600 1600 1600 1600 1600 1600 1600 1600 1600 1600 1600 1600 1600 1600 1600 1600 1600 1600 1600 1600 1600 1600 1600 1600 1600 1600 1600 1600 1600 1600 1600 1600 1600 1600 1600 1600 1600 1600 1600 1600 1600 1600 1600 1600 1600 1600 1600 1600 1600 1600 1600 1600 1600 1600 1600 1600 1600 1600 1600 1600 1600 1600 1600 1600 1600 1600 1600 1600 1600 1600 1600 1600 1600 1600 1600 1600 1600 1600 1600 1600 1600 1600 1600 1600 1600 1600 1600 1600 1600 1600 1600 1600 1600 1600 1600 1600 1600 1600 1600 1600 1600 1600 1600 1600 1600 1600 1600 1600 1600 1600 1600 1600 1600 1600 1600 1600 1600 1600 1600 1600 1600 1800 1600 1600 1600 1600 1600 1600 1600 1600 1600 1600 1600 1600 1800 1600 1600 1600 1600 1600 1600 1600 1600 1600 1600 1600 1600 1800 1600 1600 1600 1600 1600 1600 1600 1600 1600 1600 1600 1600 1600 1600 1600 1600 1600 1600 1600 1600 1600 1600 1600 1600 1600 1600 1600 1600 1600 1600 1600 1600 1600 1600 1600 1600 1600 1600 1600 1600 1600 1600 1600 1600 1600 1600 1600 1600 1600 1600 1600 1600 1600 1600 1600 1600 1600 1600 1600 1600 1600 1600 1600 1600 1600 1600 1600 1600 1600 1600 1600 1600 1600 1600 1600 1600 1600 1600 1600 1600 1600 1600 1600 1600 1600 1600 1600 1600 1600 1600 1600 1600 1600 1600 1600 1600 1600 1600 1600 1600 1600 1600 1600 1600 1600 1600 1600 1600 1600 1600 1600 1600 1600 1600 1600 1600 1600 1600 1600 1600 1600 1600 1600 1600 1600 1600 1600 1600 1600 1800 1800 1600 1600 1600 1600 1600 1600 1600 1600 1600 1600 1600 1800 1800 1600 1600 1600 1600 1600 1600 1600 1600 1600 1600 1600 1800 1800 1600 1600 1600 1600 1600 1600 1600 1600 1600 1600 1600 1800 1600 1600 1600 1600 1600 1600 1600 1600 1600 1600 1600 1600 1600 1600 1600 1600 1600 1600 1600 1600 1600 1600 1600 1600 1600 1600 1600 1600 1600 1600 1600 1600 1600 1600 1600 1600 1600 1600 1600 1600 1600 1600 1600 1600 1600 1600 1600 1600 1600 1600 1600 1600 1600 1600 1600 1600 1600 1600 1600 1600 1600 1600 1600 1600 1600 1600 1600 1600 1600 1600 1600 1600 1600 1600 1600 1600 1600 1600 1600 1600 1600 1600 1600 1600 1600 1600 1600 1600 1600 1600 1600 1600 1600 1600 1600 1600 1600 1600 1600 1600 1600 1600 1600 1600 1600 1600 1600 1600 1600 1600 1600 1600 1600 1600 1600 1600 1600 1600 1600 1600 1600 1600 1600 1600 1600 1600 1600 1600 1600 1800 1800 1800 1600 1600 1600 1600 1600 1600 1600 1600 1600 1600 1800 1800 1800 1600 1600 1600 1600 1600 1600 1600 1600 1600 1600 1800 1800 1600 1600 1600 1600 1600 1600 1600 1600 1600 1600 1600 1800 1600 1600 1600 1600 1600 1600 1600 1600 1600 1600 1600 1600 1600 1600 1600 1600 1600 1600 1600 1600 1600 1600 1600 1600 1600 1600 1600 1600 1600 1600 1600 1600 1600 1600 1600 1600 1600 1600 1600 1600 1600 1600 1600 1600 1600 1600 1600 1600 1600 1600 1600 1600 1600 1600 1600 1600 1600 1600 1600 1600 1600 1600 1600 1600 1600 1600 1600 1600 1600 1600 1600 1600 1600 1600 1600 1600 1600 1600 1600 1600 1600 1600 1600 1600 1600 1600 1600 1600 1600 1600 1600 1600 1600 1600 1600 1600 1600 1600 1600 1600 1600 1600 1600 1600 1600 1600 1600 1600 1600 1600 1600 1600 1600 1600 1600 1600 1600 1800 1800 1600 1600 1600 1600 1600 1600 1600 1600 1600 1600 1800 1800 1800 1800 1600 1600 1600 1600 1600 1600 1600 1600 1600 1800 1800 1800 1800 1600 1600 1600 1600 1600 1600 1600 1600 1600 1800 1800 1800 1600 1600 1600 1600 1600 1600 1600 1600 1600 1600 1600 1600 1600 1600 1600 1600 1600 1600 1600 1600 1600 1600 1600 1600 1600 1600 1600 1600 1600 1600 1600 1600 1600 1600 1600 1600 1600 1600 1600 1600 1600 1600 1600 1600 1600 1600 1600 1600 1600 1600 1600 1600 1600 1600 1600 1600 1600 1600 1600 1600 1600 1600 1600 1600 1600 1600 1600 1600 1600 1600 1600 1600 1600 1600 1600 1600 1600 1600 1600 1600 1600 1600 1600 1600 1600 1600 1600 1600 1600 1600 1600 1600 1600 1600 1600 1600 1600 1600 1600 1600 1600 1600 1600 1600 1600 1600 1600 1600 1600 1600 1600 1600 1600 1600 1600 1600 1600 1600 1600 1600 1600 1600 1600 1600 1600 1600 1600 1600 1600 1800 1600 1600 1600 1600 1600 1600 1600 1600 1600 1600 1600 1800 1800 1800 1600 1600 1600 1600 1600 1600 1600 1600 1600 1600 1800 1800 1800 1600 1600 1600 1600 1600 1600 1600 1600 1600 1600 1600 1800 1600 1600 1600 1600 1600 1600 1600 1600 1600 1600 1600 1600 1600 1600 1600 1600 1600 1600 1600 1600 1600 1600 1600 1600 1600 1600 1600 1600 1600 1600 1600 1600 1600 1600 1600 1600 1600 1600 1600 1600 1600 1600 1600 1600 1600 1600 1600 1600 1600 1600 1600 1600 1600 1600 1600 1600 1600 1600 1600 1600 1600 1600 1600 1600 1600 1600 1600 1600 1600 1600 1600 1600 1600 1600 1600 1600 1600 1600 1600 1600 1600 1600 1600 1600 1600 1600 1600 1600 1600 1600 1600 1600 1600 1600 1600 1600 1600 1600 1600 1600 1600 1600 1600 1600 1600 1600 1600 1600 1600 1600 1600 1600 1600 1600 1600 1600 1600 1600 1600 1600 1600 1600 1600 1600 1600 1600 1600 1600 1600 1600 1600 1600 1600 1600 1600 1600 1600 1600 1600 1600 1600 1600 1800 1800 1800 1600 1600 1600 1600 1600 1600 1600 1600 1600 1600 1800 1800 1800 1600 1600 1600 1600 1600 1600 1600 1600 1600 1600 1600 1800 1800 1600 1600 1600 1600 1600 1600 1600 1600 1600 1600 1600 1600 1600 1600 1600 1600 1600 1600 1600 1600 1600 1600 1600 1600 1600 1600 1600 1600 1600 1600 1600 1600 1600 1600 1600 1600 1600 1600 1600 1600 1600 1600 1600 1600 1600 1600 1600 1600 1600 1600 1600 1600 1600 1600 1600 1600 1600 1600 1600 1600 1600 1600 1600 1600 1600 1600 1600 1600 1600 1600 1600 1600 1600 1600 1600 1600 1600 1600 1600 1600 1600 1600 1600 1600 1600 1600 1600 1600 1600 1600 1600 1600 1600 1600 1600 1600 1600 1600 1600 1600 1600 1600 1600 1600 1600 1600 1600 1600 1600 1600 1600 1600 1600 1600 1600 1600 1600 1600 1600 1600 1600 1600 1600 1600 1600 1600 1600 1600 1600 1600 1600 1600 1600 1600 1600 1600 1600 1600 1600 1600 1600 1800 1800 1600 1600 1600 1600 1600 1600 1600 1600 1600 1600 1600 1800 1800 1800 1600 1600 1600 1600 1600 1600 1600 1600 1600 1600 1600 1800 1800 1600 1600 1600 1600 1600 1600 1600 1600 1600 1600 1600 1600 1600 1600 1600 1600 1600 1600 1600 1600 1600 1600 1600 1600 1600 1600 1600 1600 1600 1600 1600 1600 1600 1600 1600 1600 1600 1600 1600 1600 1600 1600 1600 1600 1600 1600 1600 1600 1600 1600 1600 1600 1600 1600 1600 1600 1600 1600 1600 1600 1600 1600 1600 1600 1600 1600 1600 1600 1600 1800 1600 1600 1600 1600 1600 1600 1600 1600 1600 1600 1600 1600 1600 1600 1600 1600 1600 1600 1600 1600 1600 1600 1600 1600 1600 1600 1600 1600 1600 1600 1600 1600 1600 1600 1600 1600 1600 1600 1600 1600 1600 1600 1600 1600 1600 1600 1600 1600 1600 1600 1600 1600 1600 1600 1600 1600 1600 1600 1600 1600 1600 1600 1600 1600 1600 1600 1600 1600 1600 1600 1600 1600 1600 1600 1600 1600 1600 1600 1600 1600 1600 1600 1600 1600 1800 1800 1600 1600 1600 1600 1600 1600 1600 1600 1600 1600 1600 1800 1800 1800 1600 1600 1600 1600 1600 1600 1600 1600 1600 1600 1600 1800 1800 1800 1600 1600 1600 1600 1600 1600 1600 1600 1600 1600 1600 1600 1800 1600 1600 1600 1600 1600 1600 1600 1600 1600 1600 1600 1600 1600 1800 1600 1600 1600 1600 1600 1600 1600 1600 1600 1600 1600 1600 1600 1800 1600 1600 1600 1600 1600 1600 1600 1600 1600 1600 1600 1600 1600 1600 1600 1600 1600 1600 1600 1600 1600 1600 1600 1600 1600 1600 1600 1600 1600 1600 1600 1600 1600 1600 1600 1600 1600 1600 1600 1600 1600 1600 1600 1600 1600 1600 1600 1600 1600 1600 1600 1600 1600 1600 1600 1600 1600 1600 1600 1600 1600 1600 1600 1600 1600 1600 1600 1600 1600 1600 1600 1600 1600 1600 1600 1600 1600 1600 1600 1600 1600 1600 1600 1600 1600 1600 1600 1600 1600 1600 1600 1600 1600 1600 1600 1600 1600 1600 1600 1600 1600 1600 1600 1600 1600 1600 1600 1600 1600 1600 1600 1600 1800 1800 1600 1600 1600 1600 1600 1600 1600 1600 1600 1600 1600 1600 1800 1800 1600 1600 1600 1600 1600 1600 1600 1600 1600 1600 1600 1600 1800 1600 1600 1600 1600 1600 1600 1600 1600 1600 1600 1600 1600 1600 1800 1600 1600 1600 1600 1600 1600 1600 1600 1600 1600 1600 1600 1600 1600 1600 1600 1600 1600 1600 1600 1600 1600 1600 1600 1600 1600 1600 1600 1600 1600 1600 1600 1600 1600 1600 1600 1600 1600 1600 1600 1600 1600 1600 1600 1600 1600 1600 1600 1600 1600 1600 1600 1600 1600 1600 1600 1600 1600 1600 1600 1600 1600 1600 1600 1600 1600 1600 1600 1600 1600 1600 1600 1600 1600 1600 1600 1600 1600 1600 1600 1600 1600 1600 1600 1600 1600 1600 1600 1600 1600 1600 1600 1600 1600 1600 1600 1600 1600 1600 1600 1600 1600 1600 1600 1600 1600 1600 1600 1600 1600 1600 1600 1600 1600 1600 1600 1600 1600 1600 1600 1600 1600 1600 1600 1600 1600 1600 1600 1600 1600 1600 1600 1600 1600 1600 1600 1600 1600 1600 1600 1600 1600 1600 1600 1600 1600 1600 1600 1600 1600 1600 1600 1600 1600 1600 1600 1600 1600 1600 1600 1600 1600 1600 1600 1600 1600 1600 1600 1600 1600 1600 1600 1600 1600 1600 1600 1600 1600 1600 1600 1600 1600 1600 1600 1600 1600 1600 1600 1600 1600 1600 1600 1600 1600 1600 1600 1600 1600 1600 1600 1600 1600 1600 1600 1600 1600 1600 1600 1600 1600 1600 1600 1600 1600 1600 1600 1600 1600 1600 1600 1600 1600 1600 1600 1600 1600 1600 1600 1600 1600 1600 1600 1600 1600 1600 1600 1600 1600 1600 1600 1600 1600 1600 1600 1600 1600 1600 1600 1600 1600 1600 1600 1600 1600 1600 1600 1600 1600 1600 1600 1600 1600 1600 1600 1600 1600 1600 1600 1600 1600 1600 1600 1600 1600 1600 1600 1600 1600 1600 1600 1600 1600 1600 1600 1600 1600 1600 1600 1600 1600 1600 1600 1600 1600 1600 1600 1600 1600 1600 1600 1600 1600 1600 1600 1600 1600 1600 1600 1600 1600 1600 1600 1600 1600 1600 1600 1600 1600 1600 1600 1600 1600 1600 1600 1600 1600 1600 1600 1600 1600 1600 1600 1600 1600 1600 1600 1600 1600 1600 1600 1600 1600 1600 1600 1600 1600 1600 1600 1600 1600 1600 1600 1600 1600 1600 1600 1600 1600 1600 1600 1600 1600 1600 1600 1600 1600 1600 1600 1600 1600 1600 1600 1600 1600 1600 1600 1600 1600 1600 1600 1600 1600 1600 1600 1600 1600 1600 1600 1600 1600 1600 1600 1600 1600 1600 1600 1600 1600 1600 1600 1600 1600 1600 1600 1600 1600 1600 
</DataArray>
<DataArray Name="Tag" format="ascii" type="Float64">