<?xml version="1.0"?>
<VTKFile byte_order="LittleEndian" type="UnstructuredGrid" version="0.1">
<UnstructuredGrid>
<Piece NumberOfCells="6144" NumberOfPoints="6930">
<PointData>
<DataArray Name="Depth" format="ascii" type="Float64">
2e+06 2e+06 2e+06 2e+06 2e+06 2e+06 2e+06 2e+06 2e+06 2e+06 2e+06 2e+06 2e+06 2e+06 2e+06 2e+06 2e+06 2e+06 2e+06 2e+06 2e+06 2e+06 2e+06 2e+06 2e+06 2e+06 2e+06 2e+06 2e+06 2e+06 2e+06 2e+06 2e+06 2e+06 2e+06 2e+06 2e+06 2e+06 2e+06 2e+06 2e+06 2e+06 2e+06 2e+06 2e+06 2e+06 2e+06 2e+06 2e+06 2e+06 2e+06 2e+06 2e+06 2e+06 2e+06 2e+06 2e+06 2e+06 2e+06 2e+06 2e+06 2e+06 2e+06 2e+06 2e+06 2e+06 2e+06 2e+06 2e+06 2e+06 2e+06 2e+06 2e+06 2e+06 2e+06 2e+06 2e+06 2e+06 2e+06 2e+06 2e+06 2e+06 2e+06 2e+06 2e+06 2e+06 2e+06 2e+06 2e+06 2e+06 2e+06 2e+06 2e+06 2e+06 2e+06 2e+06 2e+06 2e+06 2e+06 2e+06 2e+06 2e+06 2e+06 2e+06 2e+06 2e+06 2e+06 2e+06 2e+06 2e+06 2e+06 2e+06 2e+06 2e+06 2e+06 2e+06 2e+06 2e+06 2e+06 2e+06 2e+06 2e+06 2e+06 2e+06 2e+06 2e+06 2e+06 2e+06 2e+06 2e+06 2e+06 2e+06 2e+06 2e+06 2e+06 2e+06 2e+06 2e+06 2e+06 2e+06 2e+06 2e+06 2e+06 2e+06 2e+06 2e+06 2e+06 2e+06 2e+06 2e+06 2e+06 2e+06 2e+06 2e+06 2e+06 2e+06 2e+06 2e+06 2e+06 2e+06 2e+06 2e+06 2e+06 2e+06 2e+06 2e+06 2e+06 2e+06 2e+06 2e+06 2e+06 2e+06 2e+06 2e+06 2e+06 2e+06 2e+06 2e+06 2e+06 2e+06 2e+06 2e+06 2e+06 2e+06 2e+06 2e+06 2e+06 2e+06 2e+06 2e+06 2e+06 2e+06 2e+06 2e+06 2e+06 2e+06 2e+06 2e+06 2e+06 2e+06 2e+06 2e+06 2e+06 2e+06 2e+06 2e+06 2e+06 2e+06 2e+06 2e+06 2e+06 2e+06 2e+06 2e+06 2e+06 2e+06 2e+06 2e+06 2e+06 2e+06 2e+06 2e+06 2e+06 2e+06 2e+06 2e+06 2e+06 2e+06 2e+06 2e+06 2e+06 2e+06 2e+06 2e+06 2e+06 2e+06 2e+06 2e+06 2e+06 2e+06 2e+06 2e+06 2e+06 2e+06 2e+06 2e+06 2e+06 2e+06 2e+06 2e+06 2e+06 2e+06 2e+06 2e+06 2e+06 2e+06 2e+06 2e+06 2e+06 2e+06 2e+06 2e+06 2e+06 2e+06 2e+06 2e+06 2e+06 2e+06 2e+06 2e+06 2e+06 2e+06 2e+06 2e+06 2e+06 2e+06 2e+06 2e+06 2e+06 2e+06 2e+06 2e+06 2e+06 2e+06 2e+06 2e+06 2e+06 2e+06 2e+06 2e+06 2e+06 2e+06 2e+06 2e+06 2e+06 2e+06 2e+06 2e+06 2e+06 2e+06 2e+06 2e+06 2e+06 2e+06 2e+06 2e+06 2e+06 2e+06 2e+06 2e+06 2e+06 2e+06 2e+06 2e+06 2e+06 2e+06 2e+06 2e+06 2e+06 2e+06 2e+06 2e+06 2e+06 2e+06 2e+06 2e+06 2e+06 2e+06 2e+06 2e+06 2e+06 2e+06 2e+06 2e+06 2e+06 2e+06 2e+06 2e+06 2e+06 2e+06 2e+06 2e+06 2e+06 2e+06 2e+06 2e+06 2e+06 2e+06 2e+06 2e+06 2e+06 2e+06 2e+06 2e+06 2e+06 2e+06 2e+06 2e+06 2e+06 2e+06 2e+06 2e+06 2e+06 2e+06 2e+06 2e+06 2e+06 2e+06 2e+06 2e+06 2e+06 2e+06 2e+06 2e+06 2e+06 2e+06 2e+06 2e+06 2e+06 2e+06 2e+06 2e+06 2e+06 2e+06 2e+06 2e+06 2e+06 2e+06 2e+06 2e+06 2e+06 2e+06 2e+06 2e+06 2e+06 2e+06 2e+06 2e+06 2e+06 2e+06 2e+06 2e+06 2e+06 2e+06 2e+06 2e+06 2e+06 2e+06 2e+06 2e+06 2e+06 2e+06 2e+06 2e+06 2e+06 2e+06 2e+06 2e+06 2e+06 2e+06 2e+06 2e+06 2e+06 2e+06 2e+06 2e+06 2e+06 2e+06 2e+06 2e+06 2e+06 2e+06 2e+06 2e+06 2e+06 2e+06 2e+06 2e+06 2e+06 2e+06 2e+06 2e+06 2e+06 2e+06 2e+06 2e+06 2e+06 2e+06 2e+06 2e+06 2e+06 2e+06 2e+06 2e+06 2e+06 2e+06 2e+06 2e+06 2e+06 2e+06 2e+06 2e+06 2e+06 2e+06 2e+06 2e+06 2e+06 2e+06 2e+06 2e+06 2e+06 2e+06 2e+06 2e+06 2e+06 2e+06 2e+06 2e+06 2e+06 2e+06 2e+06 2e+06 2e+06 2e+06 2e+06 2e+06 2e+06 2e+06 2e+06 2e+06 2e+06 2e+06 2e+06 2e+06 2e+06 2e+06 2e+06 2e+06 2e+06 2e+06 2e+06 2e+06 2e+06 2e+06 2e+06 2e+06 2e+06 2e+06 2e+06 2e+06 2e+06 2e+06 2e+06 2e+06 2e+06 2e+06 2e+06 2e+06 2e+06 2e+06 2e+06 2e+06 2e+06 2e+06 2e+06 2e+06 2e+06 2e+06 2e+06 2e+06 2e+06 2e+06 2e+06 2e+06 2e+06 2e+06 2e+06 2e+06 2e+06 2e+06 2e+06 2e+06 2e+06 2e+06 2e+06 2e+06 2e+06 2e+06 2e+06 2e+06 2e+06 2e+06 2e+06 2e+06 2e+06 2e+06 2e+06 2e+06 2e+06 2e+06 2e+06 2e+06 2e+06 2e+06 2e+06 2e+06 2e+06 2e+06 2e+06 2e+06 2e+06 2e+06 2e+06 2e+06 2e+06 2e+06 2e+06 2e+06 2e+06 2e+06 2e+06 2e+06 2e+06 2e+06 2e+06 2e+06 2e+06 2e+06 2e+06 2e+06 2e+06 2e+06 2e+06 2e+06 2e+06 2e+06 2e+06 2e+06 2e+06 2e+06 2e+06 2e+06 2e+06 2e+06 2e+06 2e+06 2e+06 2e+06 2e+06 2e+06 2e+06 2e+06 2e+06 2e+06 2e+06 2e+06 2e+06 2e+06 2e+06 2e+06 2e+06 2e+06 2e+06 2e+06 2e+06 2e+06 2e+06 2e+06 2e+06 2e+06 2e+06 2e+06 2e+06 2e+06 2e+06 2e+06 2e+06 2e+06 2e+06 2e+06 2e+06 2e+06 2e+06 2e+06 2e+06 2e+06 2e+06 2e+06 2e+06 2e+06 2e+06 2e+06 2e+06 2e+06 2e+06 2e+06 2e+06 2e+06 2e+06 2e+06 2e+06 2e+06 2e+06 2e+06 2e+06 2e+06 2e+06 2e+06 2e+06 2e+06 2e+06 2e+06 2e+06 2e+06 2e+06 2e+06 2e+06 2e+06 2e+06 2e+06 2e+06 2e+06 2e+06 2e+06 2e+06 2e+06 2e+06 2e+06 2e+06 2e+06 2e+06 2e+06 2e+06 2e+06 2e+06 2e+06 2e+06 2e+06 2e+06 2e+06 2e+06 2e+06 2e+06 2e+06 2e+06 2e+06 2e+06 2e+06 2e+06 2e+06 2e+06 2e+06 2e+06 2e+06 2e+06 2e+06 2e+06 2e+06 2e+06 2e+06 2e+06 2e+06 2e+06 2e+06 2e+06 2e+06 2e+06 2e+06 2e+06 2e+06 2e+06 2e+06 2e+06 2e+06 2e+06 2e+06 2e+06 2e+06 2e+06 2e+06 2e+06 2e+06 2e+06 2e+06 2e+06 2e+06 2e+06 2e+06 2e+06 2e+06 2e+06 2e+06 2e+06 2e+06 2e+06 2e+06 2e+06 2e+06 2e+06 2e+06 2e+06 2e+06 2e+06 2e+06 2e+06 2e+06 2e+06 2e+06 2e+06 2e+06 1.75e+06 1.75e+06 1.75e+06 1.75e+06 1.75e+06 1.75e+06 1.75e+06 1.75e+06 1.75e+06 1.75e+06 1.75e+06 1.75e+06 1.75e+06 1.75e+06 1.75e+06 1.75e+06 1.75e+06 1.75e+06 1.75e+06 1.75e+06 1.75e+06 1.75e+06 1.75e+06 1.75e+06 1.75e+06 1.75e+06 1.75e+06 1.75e+06 1.75e+06 1.75e+06 1.75e+06 1.75e+06 1.75e+06 1.75e+06 1.75e+06 1.75e+06 1.75e+06 1.75e+06 1.75e+06 1.75e+06 1.75e+06 1.75e+06 1.75e+06 1.75e+06 1.75e+06 1.75e+06 1.75e+06 1.75e+06 1.75e+06 1.75e+06 1.75e+06 1.75e+06 1.75e+06 1.75e+06 1.75e+06 1.75e+06 1.75e+06 1.75e+06 1.75e+06 1.75e+06 1.75e+06 1.75e+06 1.75e+06 1.75e+06 1.75e+06 1.75e+06 1.75e+06 1.75e+06 1.75e+06 1.75e+06 1.75e+06 1.75e+06 1.75e+06 1.75e+06 1.75e+06 1.75e+06 1.75e+06 1.75e+06 1.75e+06 1.75e+06 1.75e+06 1.75e+06 1.75e+06 1.75e+06 1.75e+06 1.75e+06 1.75e+06 1.75e+06 1.75e+06 1.75e+06 1.75e+06 1.75e+06 1.75e+06 1.75e+06 1.75e+06 1.75e+06 1.75e+06 1.75e+06 1.75e+06 1.75e+06 1.75e+06 1.75e+06 1.75e+06 1.75e+06 1.75e+06 1.75e+06 1.75e+06 1.75e+06 1.75e+06 1.75e+06 1.75e+06 1.75e+06 1.75e+06 1.75e+06 1.75e+06 1.75e+06 1.75e+06 1.75e+06 1.75e+06 1.75e+06 1.75e+06 1.75e+06 1.75e+06 1.75e+06 1.75e+06 1.75e+06 1.75e+06 1.75e+06 1.75e+06 1.75e+06 1.75e+06 1.75e+06 1.75e+06 1.75e+06 1.75e+06 1.75e+06 1.75e+06 1.75e+06 1.75e+06 1.75e+06 1.75e+06 1.75e+06 1.75e+06 1.75e+06 1.75e+06 1.75e+06 1.75e+06 1.75e+06 1.75e+06 1.75e+06 1.75e+06 1.75e+06 1.75e+06 1.75e+06 1.75e+06 1.75e+06 1.75e+06 1.75e+06 1.75e+06 1.75e+06 1.75e+06 1.75e+06 1.75e+06 1.75e+06 1.75e+06 1.75e+06 1.75e+06 1.75e+06 1.75e+06 1.75e+06 1.75e+06 1.75e+06 1.75e+06 1.75e+06 1.75e+06 1.75e+06 1.75e+06 1.75e+06 1.75e+06 1.75e+06 1.75e+06 1.75e+06 1.75e+06 1.75e+06 1.75e+06 1.75e+06 1.75e+06 1.75e+06 1.75e+06 1.75e+06 1.75e+06 1.75e+06 1.75e+06 1.75e+06 1.75e+06 1.75e+06 1.75e+06 1.75e+06 1.75e+06 1.75e+06 1.75e+06 1.75e+06 1.75e+06 1.75e+06 1.75e+06 1.75e+06 1.75e+06 1.75e+06 1.75e+06 1.75e+06 1.75e+06 1.75e+06 1.75e+06 1.75e+06 1.75e+06 1.75e+06 1.75e+06 1.75e+06 1.75e+06 1.75e+06 1.75e+06 1.75e+06 1.75e+06 1.75e+06 1.75e+06 1.75e+06 1.75e+06 1.75e+06 1.75e+06 1.75e+06 1.75e+06 1.75e+06 1.75e+06 1.75e+06 1.75e+06 1.75e+06 1.75e+06 1.75e+06 1.75e+06 1.75e+06 1.75e+06 1.75e+06 1.75e+06 1.75e+06 1.75e+06 1.75e+06 1.75e+06 1.75e+06 1.75e+06 1.75e+06 1.75e+06 1.75e+06 1.75e+06 1.75e+06 1.75e+06 1.75e+06 1.75e+06 1.75e+06 1.75e+06 1.75e+06 1.75e+06 1.75e+06 1.75e+06 1.75e+06 1.75e+06 1.75e+06 1.75e+06 1.75e+06 1.75e+06 1.75e+06 1.75e+06 1.75e+06 1.75e+06 1.75e+06 1.75e+06 1.75e+06 1.75e+06 1.75e+06 1.75e+06 1.75e+06 1.75e+06 1.75e+06 1.75e+06 1.75e+06 1.75e+06 1.75e+06 1.75e+06 1.75e+06 1.75e+06 1.75e+06 1.75e+06 1.75e+06 1.75e+06 1.75e+06 1.75e+06 1.75e+06 1.75e+06 1.75e+06 1.75e+06 1.75e+06 1.75e+06 1.75e+06 1.75e+06 1.75e+06 1.75e+06 1.75e+06 1.75e+06 1.75e+06 1.75e+06 1.75e+06 1.75e+06 1.75e+06 1.75e+06 1.75e+06 1.75e+06 1.75e+06 1.75e+06 1.75e+06 1.75e+06 1.75e+06 1.75e+06 1.75e+06 1.75e+06 1.75e+06 1.75e+06 1.75e+06 1.75e+06 1.75e+06 1.75e+06 1.75e+06 1.75e+06 1.75e+06 1.75e+06 1.75e+06 1.75e+06 1.75e+06 1.75e+06 1.75e+06 1.75e+06 1.75e+06 1.75e+06 1.75e+06 1.75e+06 1.75e+06 1.75e+06 1.75e+06 1.75e+06 1.75e+06 1.75e+06 1.75e+06 1.75e+06 1.75e+06 1.75e+06 1.75e+06 1.75e+06 1.75e+06 1.75e+06 1.75e+06 1.75e+06 1.75e+06 1.75e+06 1.75e+06 1.75e+06 1.75e+06 1.75e+06 1.75e+06 1.75e+06 1.75e+06 1.75e+06 1.75e+06 1.75e+06 1.75e+06 1.75e+06 1.75e+06 1.75e+06 1.75e+06 1.75e+06 1.75e+06 1.75e+06 1.75e+06 1.75e+06 1.75e+06 1.75e+06 1.75e+06 1.75e+06 1.75e+06 1.75e+06 1.75e+06 1.75e+06 1.75e+06 1.75e+06 1.75e+06 1.75e+06 1.75e+06 1.75e+06 1.75e+06 1.75e+06 1.75e+06 1.75e+06 1.75e+06 1.75e+06 1.75e+06 1.75e+06 1.75e+06 1.75e+06 1.75e+06 1.75e+06 1.75e+06 1.75e+06 1.75e+06 1.75e+06 1.75e+06 1.75e+06 1.75e+06 1.75e+06 1.75e+06 1.75e+06 1.75e+06 1.75e+06 1.75e+06 1.75e+06 1.75e+06 1.75e+06 1.75e+06 1.75e+06 1.75e+06 1.75e+06 1.75e+06 1.75e+06 1.75e+06 1.75e+06 1.75e+06 1.75e+06 1.75e+06 1.75e+06 1.75e+06 1.75e+06 1.75e+06 1.75e+06 1.75e+06 1.75e+06 1.75e+06 1.75e+06 1.75e+06 1.75e+06 1.75e+06 1.75e+06 1.75e+06 1.75e+06 1.75e+06 1.75e+06 1.75e+06 1.75e+06 1.75e+06 1.75e+06 1.75e+06 1.75e+06 1.75e+06 1.75e+06 1.75e+06 1.75e+06 1.75e+06 1.75e+06 1.75e+06 1.75e+06 1.75e+06 1.75e+06 1.75e+06 1.75e+06 1.75e+06 1.75e+06 1.75e+06 1.75e+06 1.75e+06 1.75e+06 1.75e+06 1.75e+06 1.75e+06 1.75e+06 1.75e+06 1.75e+06 1.75e+06 1.75e+06 1.75e+06 1.75e+06 1.75e+06 1.75e+06 1.75e+06 1.75e+06 1.75e+06 1.75e+06 1.75e+06 1.75e+06 1.75e+06 1.75e+06 1.75e+06 1.75e+06 1.75e+06 1.75e+06 1.75e+06 1.75e+06 1.75e+06 1.75e+06 1.75e+06 1.75e+06 1.75e+06 1.75e+06 1.75e+06 1.75e+06 1.75e+06 1.75e+06 1.75e+06 1.75e+06 1.75e+06 1.75e+06 1.75e+06 1.75e+06 1.75e+06 1.75e+06 1.75e+06 1.75e+06 1.75e+06 1.75e+06 1.75e+06 1.75e+06 1.75e+06 1.75e+06 1.75e+06 1.75e+06 1.75e+06 1.75e+06 1.75e+06 1.75e+06 1.75e+06 1.75e+06 1.75e+06 1.75e+06 1.75e+06 1.75e+06 1.75e+06 1.75e+06 1.75e+06 1.75e+06 1.75e+06 1.75e+06 1.75e+06 1.75e+06 1.75e+06 1.75e+06 1.75e+06 1.75e+06 1.75e+06 1.75e+06 1.75e+06 1.75e+06 1.75e+06 1.75e+06 1.75e+06 1.75e+06 1.75e+06 1.75e+06 1.75e+06 1.75e+06 1.75e+06 1.75e+06 1.75e+06 1.75e+06 1.75e+06 1.75e+06 1.75e+06 1.75e+06 1.75e+06 1.75e+06 1.75e+06 1.75e+06 1.75e+06 1.75e+06 1.75e+06 1.75e+06 1.75e+06 1.75e+06 1.75e+06 1.75e+06 1.75e+06 1.75e+06 1.75e+06 1.75e+06 1.75e+06 1.75e+06 1.75e+06 1.75e+06 1.75e+06 1.75e+06 1.75e+06 1.75e+06 1.75e+06 1.75e+06 1.75e+06 1.75e+06 1.75e+06 1.75e+06 1.75e+06 1.75e+06 1.75e+06 1.75e+06 1.75e+06 1.75e+06 1.75e+06 1.75e+06 1.75e+06 1.75e+06 1.75e+06 1.75e+06 1.75e+06 1.75e+06 1.75e+06 1.75e+06 1.75e+06 1.75e+06 1.75e+06 1.75e+06 1.75e+06 1.75e+06 1.75e+06 1.75e+06 1.75e+06 1.75e+06 1.75e+06 1.75e+06 1.75e+06 1.75e+06 1.75e+06 1.75e+06 1.75e+06 1.75e+06 1.75e+06 1.75e+06 1.75e+06 1.75e+06 1.75e+06 1.75e+06 1.75e+06 1.75e+06 1.75e+06 1.75e+06 1.75e+06 1.75e+06 1.75e+06 1.75e+06 1.75e+06 1.75e+06 1.75e+06 1.75e+06 1.75e+06 1.75e+06 1.75e+06 1.75e+06 1.75e+06 1.75e+06 1.75e+06 1.75e+06 1.75e+06 1.75e+06 1.75e+06 1.75e+06 1.75e+06 1.75e+06 1.75e+06 1.75e+06 1.75e+06 1.75e+06 1.75e+06 1.75e+06 1.75e+06 1.75e+06 1.75e+06 1.75e+06 1.75e+06 1.75e+06 1.75e+06 1.75e+06 1.75e+06 1.75e+06 1.75e+06 1.75e+06 1.75e+06 1.75e+06 1.75e+06 1.75e+06 1.75e+06 1.75e+06 1.75e+06 1.75e+06 1.75e+06 1.75e+06 1.75e+06 1.75e+06 1.75e+06 1.75e+06 1.75e+06 1.75e+06 1.75e+06 1.75e+06 1.75e+06 1.75e+06 1.75e+06 1.75e+06 1.75e+06 1.75e+06 1.75e+06 1.75e+06 1.75e+06 1.75e+06 1.75e+06 1.75e+06 1.75e+06 1.75e+06 1.75e+06 1.75e+06 1.75e+06 1.75e+06 1.75e+06 1.75e+06 1.75e+06 1.75e+06 1.75e+06 1.75e+06 1.75e+06 1.75e+06 1.75e+06 1.75e+06 1.75e+06 1.75e+06 1.75e+06 1.75e+06 1.75e+06 1.75e+06 1.75e+06 1.75e+06 1.75e+06 1.75e+06 1.75e+06 1.75e+06 1.75e+06 1.75e+06 1.75e+06 1.75e+06 1.75e+06 1.75e+06 1.75e+06 1.75e+06 1.75e+06 1.75e+06 1.75e+06 1.75e+06 1.75e+06 1.75e+06 1.75e+06 1.75e+06 1.75e+06 1.75e+06 1.75e+06 1.75e+06 1.75e+06 1.75e+06 1.75e+06 1.75e+06 1.75e+06 1.75e+06 1.75e+06 1.5e+06 1.5e+06 1.5e+06 1.5e+06 1.5e+06 1.5e+06 1.5e+06 1.5e+06 1.5e+06 1.5e+06 1.5e+06 1.5e+06 1.5e+06 1.5e+06 1.5e+06 1.5e+06 1.5e+06 1.5e+06 1.5e+06 1.5e+06 1.5e+06 1.5e+06 1.5e+06 1.5e+06 1.5e+06 1.5e+06 1.5e+06 1.5e+06 1.5e+06 1.5e+06 1.5e+06 1.5e+06 1.5e+06 1.5e+06 1.5e+06 1.5e+06 1.5e+06 1.5e+06 1.5e+06 1.5e+06 1.5e+06 1.5e+06 1.5e+06 1.5e+06 1.5e+06 1.5e+06 1.5e+06 1.5e+06 1.5e+06 1.5e+06 1.5e+06 1.5e+06 1.5e+06 1.5e+06 1.5e+06 1.5e+06 1.5e+06 1.5e+06 1.5e+06 1.5e+06 1.5e+06 1.5e+06 1.5e+06 1.5e+06 1.5e+06 1.5e+06 1.5e+06 1.5e+06 1.5e+06 1.5e+06 1.5e+06 1.5e+06 1.5e+06 1.5e+06 1.5e+06 1.5e+06 1.5e+06 1.5e+06 1.5e+06 1.5e+06 1.5e+06 1.5e+06 1.5e+06 1.5e+06 1.5e+06 1.5e+06 1.5e+06 1.5e+06 1.5e+06 1.5e+06 1.5e+06 1.5e+06 1.5e+06 1.5e+06 1.5e+06 1.5e+06 1.5e+06 1.5e+06 1.5e+06 1.5e+06 1.5e+06 1.5e+06 1.5e+06 1.5e+06 1.5e+06 1.5e+06 1.5e+06 1.5e+06 1.5e+06 1.5e+06 1.5e+06 1.5e+06 1.5e+06 1.5e+06 1.5e+06 1.5e+06 1.5e+06 1.5e+06 1.5e+06 1.5e+06 1.5e+06 1.5e+06 1.5e+06 1.5e+06 1.5e+06 1.5e+06 1.5e+06 1.5e+06 1.5e+06 1.5e+06 1.5e+06 1.5e+06 1.5e+06 1.5e+06 1.5e+06 1.5e+06 1.5e+06 1.5e+06 1.5e+06 1.5e+06 1.5e+06 1.5e+06 1.5e+06 1.5e+06 1.5e+06 1.5e+06 1.5e+06 1.5e+06 1.5e+06 1.5e+06 1.5e+06 1.5e+06 1.5e+06 1.5e+06 1.5e+06 1.5e+06 1.5e+06 1.5e+06 1.5e+06 1.5e+06 1.5e+06 1.5e+06 1.5e+06 1.5e+06 1.5e+06 1.5e+06 1.5e+06 1.5e+06 1.5e+06 1.5e+06 1.5e+06 1.5e+06 1.5e+06 1.5e+06 1.5e+06 1.5e+06 1.5e+06 1.5e+06 1.5e+06 1.5e+06 1.5e+06 1.5e+06 1.5e+06 1.5e+06 1.5e+06 1.5e+06 1.5e+06 1.5e+06 1.5e+06 1.5e+06 1.5e+06 1.5e+06 1.5e+06 1.5e+06 1.5e+06 1.5e+06 1.5e+06 1.5e+06 1.5e+06 1.5e+06 1.5e+06 1.5e+06 1.5e+06 1.5e+06 1.5e+06 1.5e+06 1.5e+06 1.5e+06 1.5e+06 1.5e+06 1.5e+06 1.5e+06 1.5e+06 1.5e+06 1.5e+06 1.5e+06 1.5e+06 1.5e+06 1.5e+06 1.5e+06 1.5e+06 1.5e+06 1.5e+06 1.5e+06 1.5e+06 1.5e+06 1.5e+06 1.5e+06 1.5e+06 1.5e+06 1.5e+06 1.5e+06 1.5e+06 1.5e+06 1.5e+06 1.5e+06 1.5e+06 1.5e+06 1.5e+06 1.5e+06 1.5e+06 1.5e+06 1.5e+06 1.5e+06 1.5e+06 1.5e+06 1.5e+06 1.5e+06 1.5e+06 1.5e+06 1.5e+06 1.5e+06 1.5e+06 1.5e+06 1.5e+06 1.5e+06 1.5e+06 1.5e+06 1.5e+06 1.5e+06 1.5e+06 1.5e+06 1.5e+06 1.5e+06 1.5e+06 1.5e+06 1.5e+06 1.5e+06 1.5e+06 1.5e+06 1.5e+06 1.5e+06 1.5e+06 1.5e+06 1.5e+06 1.5e+06 1.5e+06 1.5e+06 1.5e+06 1.5e+06 1.5e+06 1.5e+06 1.5e+06 1.5e+06 1.5e+06 1.5e+06 1.5e+06 1.5e+06 1.5e+06 1.5e+06 1.5e+06 1.5e+06 1.5e+06 1.5e+06 1.5e+06 1.5e+06 1.5e+06 1.5e+06 1.5e+06 1.5e+06 1.5e+06 1.5e+06 1.5e+06 1.5e+06 1.5e+06 1.5e+06 1.5e+06 1.5e+06 1.5e+06 1.5e+06 1.5e+06 1.5e+06 1.5e+06 1.5e+06 1.5e+06 1.5e+06 1.5e+06 1.5e+06 1.5e+06 1.5e+06 1.5e+06 1.5e+06 1.5e+06 1.5e+06 1.5e+06 1.5e+06 1.5e+06 1.5e+06 1.5e+06 1.5e+06 1.5e+06 1.5e+06 1.5e+06 1.5e+06 1.5e+06 1.5e+06 1.5e+06 1.5e+06 1.5e+06 1.5e+06 1.5e+06 1.5e+06 1.5e+06 1.5e+06 1.5e+06 1.5e+06 1.5e+06 1.5e+06 1.5e+06 1.5e+06 1.5e+06 1.5e+06 1.5e+06 1.5e+06 1.5e+06 1.5e+06 1.5e+06 1.5e+06 1.5e+06 1.5e+06 1.5e+06 1.5e+06 1.5e+06 1.5e+06 1.5e+06 1.5e+06 1.5e+06 1.5e+06 1.5e+06 1.5e+06 1.5e+06 1.5e+06 1.5e+06 1.5e+06 1.5e+06 1.5e+06 1.5e+06 1.5e+06 1.5e+06 1.5e+06 1.5e+06 1.5e+06 1.5e+06 1.5e+06 1.5e+06 1.5e+06 1.5e+06 1.5e+06 1.5e+06 1.5e+06 1.5e+06 1.5e+06 1.5e+06 1.5e+06 1.5e+06 1.5e+06 1.5e+06 1.5e+06 1.5e+06 1.5e+06 1.5e+06 1.5e+06 1.5e+06 1.5e+06 1.5e+06 1.5e+06 1.5e+06 1.5e+06 1.5e+06 1.5e+06 1.5e+06 1.5e+06 1.5e+06 1.5e+06 1.5e+06 1.5e+06 1.5e+06 1.5e+06 1.5e+06 1.5e+06 1.5e+06 1.5e+06 1.5e+06 1.5e+06 1.5e+06 1.5e+06 1.5e+06 1.5e+06 1.5e+06 1.5e+06 1.5e+06 1.5e+06 1.5e+06 1.5e+06 1.5e+06 1.5e+06 1.5e+06 1.5e+06 1.5e+06 1.5e+06 1.5e+06 1.5e+06 1.5e+06 1.5e+06 1.5e+06 1.5e+06 1.5e+06 1.5e+06 1.5e+06 1.5e+06 1.5e+06 1.5e+06 1.5e+06 1.5e+06 1.5e+06 1.5e+06 1.5e+06 1.5e+06 1.5e+06 1.5e+06 1.5e+06 1.5e+06 1.5e+06 1.5e+06 1.5e+06 1.5e+06 1.5e+06 1.5e+06 1.5e+06 1.5e+06 1.5e+06 1.5e+06 1.5e+06 1.5e+06 1.5e+06 1.5e+06 1.5e+06 1.5e+06 1.5e+06 1.5e+06 1.5e+06 1.5e+06 1.5e+06 1.5e+06 1.5e+06 1.5e+06 1.5e+06 1.5e+06 1.5e+06 1.5e+06 1.5e+06 1.5e+06 1.5e+06 1.5e+06 1.5e+06 1.5e+06 1.5e+06 1.5e+06 1.5e+06 1.5e+06 1.5e+06 1.5e+06 1.5e+06 1.5e+06 1.5e+06 1.5e+06 1.5e+06 1.5e+06 1.5e+06 1.5e+06 1.5e+06 1.5e+06 1.5e+06 1.5e+06 1.5e+06 1.5e+06 1.5e+06 1.5e+06 1.5e+06 1.5e+06 1.5e+06 1.5e+06 1.5e+06 1.5e+06 1.5e+06 1.5e+06 1.5e+06 1.5e+06 1.5e+06 1.5e+06 1.5e+06 1.5e+06 1.5e+06 1.5e+06 1.5e+06 1.5e+06 1.5e+06 1.5e+06 1.5e+06 1.5e+06 1.5e+06 1.5e+06 1.5e+06 1.5e+06 1.5e+06 1.5e+06 1.5e+06 1.5e+06 1.5e+06 1.5e+06 1.5e+06 1.5e+06 1.5e+06 1.5e+06 1.5e+06 1.5e+06 1.5e+06 1.5e+06 1.5e+06 1.5e+06 1.5e+06 1.5e+06 1.5e+06 1.5e+06 1.5e+06 1.5e+06 1.5e+06 1.5e+06 1.5e+06 1.5e+06 1.5e+06 1.5e+06 1.5e+06 1.5e+06 1.5e+06 1.5e+06 1.5e+06 1.5e+06 1.5e+06 1.5e+06 1.5e+06 1.5e+06 1.5e+06 1.5e+06 1.5e+06 1.5e+06 1.5e+06 1.5e+06 1.5e+06 1.5e+06 1.5e+06 1.5e+06 1.5e+06 1.5e+06 1.5e+06 1.5e+06 1.5e+06 1.5e+06 1.5e+06 1.5e+06 1.5e+06 1.5e+06 1.5e+06 1.5e+06 1.5e+06 1.5e+06 1.5e+06 1.5e+06 1.5e+06 1.5e+06 1.5e+06 1.5e+06 1.5e+06 1.5e+06 1.5e+06 1.5e+06 1.5e+06 1.5e+06 1.5e+06 1.5e+06 1.5e+06 1.5e+06 1.5e+06 1.5e+06 1.5e+06 1.5e+06 1.5e+06 1.5e+06 1.5e+06 1.5e+06 1.5e+06 1.5e+06 1.5e+06 1.5e+06 1.5e+06 1.5e+06 1.5e+06 1.5e+06 1.5e+06 1.5e+06 1.5e+06 1.5e+06 1.5e+06 1.5e+06 1.5e+06 1.5e+06 1.5e+06 1.5e+06 1.5e+06 1.5e+06 1.5e+06 1.5e+06 1.5e+06 1.5e+06 1.5e+06 1.5e+06 1.5e+06 1.5e+06 1.5e+06 1.5e+06 1.5e+06 1.5e+06 1.5e+06 1.5e+06 1.5e+06 1.5e+06 1.5e+06 1.5e+06 1.5e+06 1.5e+06 1.5e+06 1.5e+06 1.5e+06 1.5e+06 1.5e+06 1.5e+06 1.5e+06 1.5e+06 1.5e+06 1.5e+06 1.5e+06 1.5e+06 1.5e+06 1.5e+06 1.5e+06 1.5e+06 1.5e+06 1.5e+06 1.5e+06 1.5e+06 1.5e+06 1.5e+06 1.5e+06 1.5e+06 1.5e+06 1.5e+06 1.5e+06 1.5e+06 1.5e+06 1.5e+06 1.5e+06 1.5e+06 1.5e+06 1.5e+06 1.5e+06 1.5e+06 1.5e+06 1.5e+06 1.5e+06 1.5e+06 1.5e+06 1.5e+06 1.5e+06 1.5e+06 1.5e+06 1.5e+06 1.5e+06 1.5e+06 1.5e+06 1.5e+06 1.5e+06 1.5e+06 1.5e+06 1.5e+06 1.5e+06 1.5e+06 1.5e+06 1.5e+06 1.5e+06 1.5e+06 1.5e+06 1.5e+06 1.5e+06 1.5e+06 1.5e+06 1.5e+06 1.5e+06 1.5e+06 1.5e+06 1.5e+06 1.5e+06 1.5e+06 1.5e+06 1.5e+06 1.5e+06 1.5e+06 1.5e+06 1.5e+06 1.5e+06 1.5e+06 1.5e+06 1.5e+06 1.5e+06 1.5e+06 1.5e+06 1.5e+06 1.5e+06 1.5e+06 1.5e+06 1.5e+06 1.5e+06 1.5e+06 1.5e+06 1.5e+06 1.5e+06 1.5e+06 1.5e+06 1.5e+06 1.5e+06 1.5e+06 1.25e+06 1.25e+06 1.25e+06 1.25e+06 1.25e+06 1.25e+06 1.25e+06 1.25e+06 1.25e+06 1.25e+06 1.25e+06 1.25e+06 1.25e+06 1.25e+06 1.25e+06 1.25e+06 1.25e+06 1.25e+06 1.25e+06 1.25e+06 1.25e+06 1.25e+06 1.25e+06 1.25e+06 1.25e+06 1.25e+06 1.25e+06 1.25e+06 1.25e+06 1.25e+06 1.25e+06 1.25e+06 1.25e+06 1.25e+06 1.25e+06 1.25e+06 1.25e+06 1.25e+06 1.25e+06 1.25e+06 1.25e+06 1.25e+06 1.25e+06 1.25e+06 1.25e+06 1.25e+06 1.25e+06 1.25e+06 1.25e+06 1.25e+06 1.25e+06 1.25e+06 1.25e+06 1.25e+06 1.25e+06 1.25e+06 1.25e+06 1.25e+06 1.25e+06 1.25e+06 1.25e+06 1.25e+06 1.25e+06 1.25e+06 1.25e+06 1.25e+06 1.25e+06 1.25e+06 1.25e+06 1.25e+06 1.25e+06 1.25e+06 1.25e+06 1.25e+06 1.25e+06 1.25e+06 1.25e+06 1.25e+06 1.25e+06 1.25e+06 1.25e+06 1.25e+06 1.25e+06 1.25e+06 1.25e+06 1.25e+06 1.25e+06 1.25e+06 1.25e+06 1.25e+06 1.25e+06 1.25e+06 1.25e+06 1.25e+06 1.25e+06 1.25e+06 1.25e+06 1.25e+06 1.25e+06 1.25e+06 1.25e+06 1.25e+06 1.25e+06 1.25e+06 1.25e+06 1.25e+06 1.25e+06 1.25e+06 1.25e+06 1.25e+06 1.25e+06 1.25e+06 1.25e+06 1.25e+06 1.25e+06 1.25e+06 1.25e+06 1.25e+06 1.25e+06 1.25e+06 1.25e+06 1.25e+06 1.25e+06 1.25e+06 1.25e+06 1.25e+06 1.25e+06 1.25e+06 1.25e+06 1.25e+06 1.25e+06 1.25e+06 1.25e+06 1.25e+06 1.25e+06 1.25e+06 1.25e+06 1.25e+06 1.25e+06 1.25e+06 1.25e+06 1.25e+06 1.25e+06 1.25e+06 1.25e+06 1.25e+06 1.25e+06 1.25e+06 1.25e+06 1.25e+06 1.25e+06 1.25e+06 1.25e+06 1.25e+06 1.25e+06 1.25e+06 1.25e+06 1.25e+06 1.25e+06 1.25e+06 1.25e+06 1.25e+06 1.25e+06 1.25e+06 1.25e+06 1.25e+06 1.25e+06 1.25e+06 1.25e+06 1.25e+06 1.25e+06 1.25e+06 1.25e+06 1.25e+06 1.25e+06 1.25e+06 1.25e+06 1.25e+06 1.25e+06 1.25e+06 1.25e+06 1.25e+06 1.25e+06 1.25e+06 1.25e+06 1.25e+06 1.25e+06 1.25e+06 1.25e+06 1.25e+06 1.25e+06 1.25e+06 1.25e+06 1.25e+06 1.25e+06 1.25e+06 1.25e+06 1.25e+06 1.25e+06 1.25e+06 1.25e+06 1.25e+06 1.25e+06 1.25e+06 1.25e+06 1.25e+06 1.25e+06 1.25e+06 1.25e+06 1.25e+06 1.25e+06 1.25e+06 1.25e+06 1.25e+06 1.25e+06 1.25e+06 1.25e+06 1.25e+06 1.25e+06 1.25e+06 1.25e+06 1.25e+06 1.25e+06 1.25e+06 1.25e+06 1.25e+06 1.25e+06 1.25e+06 1.25e+06 1.25e+06 1.25e+06 1.25e+06 1.25e+06 1.25e+06 1.25e+06 1.25e+06 1.25e+06 1.25e+06 1.25e+06 1.25e+06 1.25e+06 1.25e+06 1.25e+06 1.25e+06 1.25e+06 1.25e+06 1.25e+06 1.25e+06 1.25e+06 1.25e+06 1.25e+06 1.25e+06 1.25e+06 1.25e+06 1.25e+06 1.25e+06 1.25e+06 1.25e+06 1.25e+06 1.25e+06 1.25e+06 1.25e+06 1.25e+06 1.25e+06 1.25e+06 1.25e+06 1.25e+06 1.25e+06 1.25e+06 1.25e+06 1.25e+06 1.25e+06 1.25e+06 1.25e+06 1.25e+06 1.25e+06 1.25e+06 1.25e+06 1.25e+06 1.25e+06 1.25e+06 1.25e+06 1.25e+06 1.25e+06 1.25e+06 1.25e+06 1.25e+06 1.25e+06 1.25e+06 1.25e+06 1.25e+06 1.25e+06 1.25e+06 1.25e+06 1.25e+06 1.25e+06 1.25e+06 1.25e+06 1.25e+06 1.25e+06 1.25e+06 1.25e+06 1.25e+06 1.25e+06 1.25e+06 1.25e+06 1.25e+06 1.25e+06 1.25e+06 1.25e+06 1.25e+06 1.25e+06 1.25e+06 1.25e+06 1.25e+06 1.25e+06 1.25e+06 1.25e+06 1.25e+06 1.25e+06 1.25e+06 1.25e+06 1.25e+06 1.25e+06 1.25e+06 1.25e+06 1.25e+06 1.25e+06 1.25e+06 1.25e+06 1.25e+06 1.25e+06 1.25e+06 1.25e+06 1.25e+06 1.25e+06 1.25e+06 1.25e+06 1.25e+06 1.25e+06 1.25e+06 1.25e+06 1.25e+06 1.25e+06 1.25e+06 1.25e+06 1.25e+06 1.25e+06 1.25e+06 1.25e+06 1.25e+06 1.25e+06 1.25e+06 1.25e+06 1.25e+06 1.25e+06 1.25e+06 1.25e+06 1.25e+06 1.25e+06 1.25e+06 1.25e+06 1.25e+06 1.25e+06 1.25e+06 1.25e+06 1.25e+06 1.25e+06 1.25e+06 1.25e+06 1.25e+06 1.25e+06 1.25e+06 1.25e+06 1.25e+06 1.25e+06 1.25e+06 1.25e+06 1.25e+06 1.25e+06 1.25e+06 1.25e+06 1.25e+06 1.25e+06 1.25e+06 1.25e+06 1.25e+06 1.25e+06 1.25e+06 1.25e+06 1.25e+06 1.25e+06 1.25e+06 1.25e+06 1.25e+06 1.25e+06 1.25e+06 1.25e+06 1.25e+06 1.25e+06 1.25e+06 1.25e+06 1.25e+06 1.25e+06 1.25e+06 1.25e+06 1.25e+06 1.25e+06 1.25e+06 1.25e+06 1.25e+06 1.25e+06 1.25e+06 1.25e+06 1.25e+06 1.25e+06 1.25e+06 1.25e+06 1.25e+06 1.25e+06 1.25e+06 1.25e+06 1.25e+06 1.25e+06 1.25e+06 1.25e+06 1.25e+06 1.25e+06 1.25e+06 1.25e+06 1.25e+06 1.25e+06 1.25e+06 1.25e+06 1.25e+06 1.25e+06 1.25e+06 1.25e+06 1.25e+06 1.25e+06 1.25e+06 1.25e+06 1.25e+06 1.25e+06 1.25e+06 1.25e+06 1.25e+06 1.25e+06 1.25e+06 1.25e+06 1.25e+06 1.25e+06 1.25e+06 1.25e+06 1.25e+06 1.25e+06 1.25e+06 1.25e+06 1.25e+06 1.25e+06 1.25e+06 1.25e+06 1.25e+06 1.25e+06 1.25e+06 1.25e+06 1.25e+06 1.25e+06 1.25e+06 1.25e+06 1.25e+06 1.25e+06 1.25e+06 1.25e+06 1.25e+06 1.25e+06 1.25e+06 1.25e+06 1.25e+06 1.25e+06 1.25e+06 1.25e+06 1.25e+06 1.25e+06 1.25e+06 1.25e+06 1.25e+06 1.25e+06 1.25e+06 1.25e+06 1.25e+06 1.25e+06 1.25e+06 1.25e+06 1.25e+06 1.25e+06 1.25e+06 1.25e+06 1.25e+06 1.25e+06 1.25e+06 1.25e+06 1.25e+06 1.25e+06 1.25e+06 1.25e+06 1.25e+06 1.25e+06 1.25e+06 1.25e+06 1.25e+06 1.25e+06 1.25e+06 1.25e+06 1.25e+06 1.25e+06 1.25e+06 1.25e+06 1.25e+06 1.25e+06 1.25e+06 1.25e+06 1.25e+06 1.25e+06 1.25e+06 1.25e+06 1.25e+06 1.25e+06 1.25e+06 1.25e+06 1.25e+06 1.25e+06 1.25e+06 1.25e+06 1.25e+06 1.25e+06 1.25e+06 1.25e+06 1.25e+06 1.25e+06 1.25e+06 1.25e+06 1.25e+06 1.25e+06 1.25e+06 1.25e+06 1.25e+06 1.25e+06 1.25e+06 1.25e+06 1.25e+06 1.25e+06 1.25e+06 1.25e+06 1.25e+06 1.25e+06 1.25e+06 1.25e+06 1.25e+06 1.25e+06 1.25e+06 1.25e+06 1.25e+06 1.25e+06 1.25e+06 1.25e+06 1.25e+06 1.25e+06 1.25e+06 1.25e+06 1.25e+06 1.25e+06 1.25e+06 1.25e+06 1.25e+06 1.25e+06 1.25e+06 1.25e+06 1.25e+06 1.25e+06 1.25e+06 1.25e+06 1.25e+06 1.25e+06 1.25e+06 1.25e+06 1.25e+06 1.25e+06 1.25e+06 1.25e+06 1.25e+06 1.25e+06 1.25e+06 1.25e+06 1.25e+06 1.25e+06 1.25e+06 1.25e+06 1.25e+06 1.25e+06 1.25e+06 1.25e+06 1.25e+06 1.25e+06 1.25e+06 1.25e+06 1.25e+06 1.25e+06 1.25e+06 1.25e+06 1.25e+06 1.25e+06 1.25e+06 1.25e+06 1.25e+06 1.25e+06 1.25e+06 1.25e+06 1.25e+06 1.25e+06 1.25e+06 1.25e+06 1.25e+06 1.25e+06 1.25e+06 1.25e+06 1.25e+06 1.25e+06 1.25e+06 1.25e+06 1.25e+06 1.25e+06 1.25e+06 1.25e+06 1.25e+06 1.25e+06 1.25e+06 1.25e+06 1.25e+06 1.25e+06 1.25e+06 1.25e+06 1.25e+06 1.25e+06 1.25e+06 1.25e+06 1.25e+06 1.25e+06 1.25e+06 1.25e+06 1.25e+06 1.25e+06 1.25e+06 1.25e+06 1.25e+06 1.25e+06 1.25e+06 1.25e+06 1.25e+06 1.25e+06 1.25e+06 1.25e+06 1.25e+06 1.25e+06 1.25e+06 1.25e+06 1.25e+06 1.25e+06 1.25e+06 1.25e+06 1.25e+06 1.25e+06 1.25e+06 1.25e+06 1.25e+06 1.25e+06 1.25e+06 1.25e+06 1.25e+06 1.25e+06 1.25e+06 1.25e+06 1.25e+06 1.25e+06 1.25e+06 1.25e+06 1.25e+06 1.25e+06 1.25e+06 1.25e+06 1.25e+06 1.25e+06 1.25e+06 1.25e+06 1.25e+06 1.25e+06 1.25e+06 1.25e+06 1.25e+06 1.25e+06 1.25e+06 1.25e+06 1.25e+06 1.25e+06 1.25e+06 1.25e+06 1.25e+06 1.25e+06 1.25e+06 1.25e+06 1.25e+06 1.25e+06 1.25e+06 1.25e+06 1.25e+06 1.25e+06 1.25e+06 1.25e+06 1.25e+06 1.25e+06 1.25e+06 1.25e+06 1.25e+06 1.25e+06 1.25e+06 1.25e+06 1.25e+06 1.25e+06 1.25e+06 1.25e+06 1.25e+06 1.25e+06 1.25e+06 1.25e+06 1.25e+06 1.25e+06 1.25e+06 1.25e+06 1.25e+06 1.25e+06 1.25e+06 1.25e+06 1.25e+06 1.25e+06 1.25e+06 1.25e+06 1.25e+06 1.25e+06 1.25e+06 1.25e+06 1.25e+06 1.25e+06 1.25e+06 1.25e+06 1.25e+06 1.25e+06 1.25e+06 1.25e+06 1.25e+06 1.25e+06 1.25e+06 1.25e+06 1.25e+06 1.25e+06 1.25e+06 1.25e+06 1.25e+06 1.25e+06 1.25e+06 1.25e+06 1e+06 1e+06 1e+06 1e+06 1e+06 1e+06 1e+06 1e+06 1e+06 1e+06 1e+06 1e+06 1e+06 1e+06 1e+06 1e+06 1e+06 1e+06 1e+06 1e+06 1e+06 1e+06 1e+06 1e+06 1e+06 1e+06 1e+06 1e+06 1e+06 1e+06 1e+06 1e+06 1e+06 1e+06 1e+06 1e+06 1e+06 1e+06 1e+06 1e+06 1e+06 1e+06 1e+06 1e+06 1e+06 1e+06 1e+06 1e+06 1e+06 1e+06 1e+06 1e+06 1e+06 1e+06 1e+06 1e+06 1e+06 1e+06 1e+06 1e+06 1e+06 1e+06 1e+06 1e+06 1e+06 1e+06 1e+06 1e+06 1e+06 1e+06 1e+06 1e+06 1e+06 1e+06 1e+06 1e+06 1e+06 1e+06 1e+06 1e+06 1e+06 1e+06 1e+06 1e+06 1e+06 1e+06 1e+06 1e+06 1e+06 1e+06 1e+06 1e+06 1e+06 1e+06 1e+06 1e+06 1e+06 1e+06 1e+06 1e+06 1e+06 1e+06 1e+06 1e+06 1e+06 1e+06 1e+06 1e+06 1e+06 1e+06 1e+06 1e+06 1e+06 1e+06 1e+06 1e+06 1e+06 1e+06 1e+06 1e+06 1e+06 1e+06 1e+06 1e+06 1e+06 1e+06 1e+06 1e+06 1e+06 1e+06 1e+06 1e+06 1e+06 1e+06 1e+06 1e+06 1e+06 1e+06 1e+06 1e+06 1e+06 1e+06 1e+06 1e+06 1e+06 1e+06 1e+06 1e+06 1e+06 1e+06 1e+06 1e+06 1e+06 1e+06 1e+06 1e+06 1e+06 1e+06 1e+06 1e+06 1e+06 1e+06 1e+06 1e+06 1e+06 1e+06 1e+06 1e+06 1e+06 1e+06 1e+06 1e+06 1e+06 1e+06 1e+06 1e+06 1e+06 1e+06 1e+06 1e+06 1e+06 1e+06 1e+06 1e+06 1e+06 1e+06 1e+06 1e+06 1e+06 1e+06 1e+06 1e+06 1e+06 1e+06 1e+06 1e+06 1e+06 1e+06 1e+06 1e+06 1e+06 1e+06 1e+06 1e+06 1e+06 1e+06 1e+06 1e+06 1e+06 1e+06 1e+06 1e+06 1e+06 1e+06 1e+06 1e+06 1e+06 1e+06 1e+06 1e+06 1e+06 1e+06 1e+06 1e+06 1e+06 1e+06 1e+06 1e+06 1e+06 1e+06 1e+06 1e+06 1e+06 1e+06 1e+06 1e+06 1e+06 1e+06 1e+06 1e+06 1e+06 1e+06 1e+06 1e+06 1e+06 1e+06 1e+06 1e+06 1e+06 1e+06 1e+06 1e+06 1e+06 1e+06 1e+06 1e+06 1e+06 1e+06 1e+06 1e+06 1e+06 1e+06 1e+06 1e+06 1e+06 1e+06 1e+06 1e+06 1e+06 1e+06 1e+06 1e+06 1e+06 1e+06 1e+06 1e+06 1e+06 1e+06 1e+06 1e+06 1e+06 1e+06 1e+06 1e+06 1e+06 1e+06 1e+06 1e+06 1e+06 1e+06 1e+06 1e+06 1e+06 1e+06 1e+06 1e+06 1e+06 1e+06 1e+06 1e+06 1e+06 1e+06 1e+06 1e+06 1e+06 1e+06 1e+06 1e+06 1e+06 1e+06 1e+06 1e+06 1e+06 1e+06 1e+06 1e+06 1e+06 1e+06 1e+06 1e+06 1e+06 1e+06 1e+06 1e+06 1e+06 1e+06 1e+06 1e+06 1e+06 1e+06 1e+06 1e+06 1e+06 1e+06 1e+06 1e+06 1e+06 1e+06 1e+06 1e+06 1e+06 1e+06 1e+06 1e+06 1e+06 1e+06 1e+06 1e+06 1e+06 1e+06 1e+06 1e+06 1e+06 1e+06 1e+06 1e+06 1e+06 1e+06 1e+06 1e+06 1e+06 1e+06 1e+06 1e+06 1e+06 1e+06 1e+06 1e+06 1e+06 1e+06 1e+06 1e+06 1e+06 1e+06 1e+06 1e+06 1e+06 1e+06 1e+06 1e+06 1e+06 1e+06 1e+06 1e+06 1e+06 1e+06 1e+06 1e+06 1e+06 1e+06 1e+06 1e+06 1e+06 1e+06 1e+06 1e+06 1e+06 1e+06 1e+06 1e+06 1e+06 1e+06 1e+06 1e+06 1e+06 1e+06 1e+06 1e+06 1e+06 1e+06 1e+06 1e+06 1e+06 1e+06 1e+06 1e+06 1e+06 1e+06 1e+06 1e+06 1e+06 1e+06 1e+06 1e+06 1e+06 1e+06 1e+06 1e+06 1e+06 1e+06 1e+06 1e+06 1e+06 1e+06 1e+06 1e+06 1e+06 1e+06 1e+06 1e+06 1e+06 1e+06 1e+06 1e+06 1e+06 1e+06 1e+06 1e+06 1e+06 1e+06 1e+06 1e+06 1e+06 1e+06 1e+06 1e+06 1e+06 1e+06 1e+06 1e+06 1e+06 1e+06 1e+06 1e+06 1e+06 1e+06 1e+06 1e+06 1e+06 1e+06 1e+06 1e+06 1e+06 1e+06 1e+06 1e+06 1e+06 1e+06 1e+06 1e+06 1e+06 1e+06 1e+06 1e+06 1e+06 1e+06 1e+06 1e+06 1e+06 1e+06 1e+06 1e+06 1e+06 1e+06 1e+06 1e+06 1e+06 1e+06 1e+06 1e+06 1e+06 1e+06 1e+06 1e+06 1e+06 1e+06 1e+06 1e+06 1e+06 1e+06 1e+06 1e+06 1e+06 1e+06 1e+06 1e+06 1e+06 1e+06 1e+06 1e+06 1e+06 1e+06 1e+06 1e+06 1e+06 1e+06 1e+06 1e+06 1e+06 1e+06 1e+06 1e+06 1e+06 1e+06 1e+06 1e+06 1e+06 1e+06 1e+06 1e+06 1e+06 1e+06 1e+06 1e+06 1e+06 1e+06 1e+06 1e+06 1e+06 1e+06 1e+06 1e+06 1e+06 1e+06 1e+06 1e+06 1e+06 1e+06 1e+06 1e+06 1e+06 1e+06 1e+06 1e+06 1e+06 1e+06 1e+06 1e+06 1e+06 1e+06 1e+06 1e+06 1e+06 1e+06 1e+06 1e+06 1e+06 1e+06 1e+06 1e+06 1e+06 1e+06 1e+06 1e+06 1e+06 1e+06 1e+06 1e+06 1e+06 1e+06 1e+06 1e+06 1e+06 1e+06 1e+06 1e+06 1e+06 1e+06 1e+06 1e+06 1e+06 1e+06 1e+06 1e+06 1e+06 1e+06 1e+06 1e+06 1e+06 1e+06 1e+06 1e+06 1e+06 1e+06 1e+06 1e+06 1e+06 1e+06 1e+06 1e+06 1e+06 1e+06 1e+06 1e+06 1e+06 1e+06 1e+06 1e+06 1e+06 1e+06 1e+06 1e+06 1e+06 1e+06 1e+06 1e+06 1e+06 1e+06 1e+06 1e+06 1e+06 1e+06 1e+06 1e+06 1e+06 1e+06 1e+06 1e+06 1e+06 1e+06 1e+06 1e+06 1e+06 1e+06 1e+06 1e+06 1e+06 1e+06 1e+06 1e+06 1e+06 1e+06 1e+06 1e+06 1e+06 1e+06 1e+06 1e+06 1e+06 1e+06 1e+06 1e+06 1e+06 1e+06 1e+06 1e+06 1e+06 1e+06 1e+06 1e+06 1e+06 1e+06 1e+06 1e+06 1e+06 1e+06 1e+06 1e+06 1e+06 1e+06 1e+06 1e+06 1e+06 1e+06 1e+06 1e+06 1e+06 1e+06 1e+06 1e+06 1e+06 1e+06 1e+06 1e+06 1e+06 1e+06 1e+06 1e+06 1e+06 1e+06 1e+06 1e+06 1e+06 1e+06 1e+06 1e+06 1e+06 1e+06 1e+06 1e+06 1e+06 1e+06 1e+06 1e+06 1e+06 1e+06 1e+06 1e+06 1e+06 1e+06 1e+06 1e+06 1e+06 1e+06 1e+06 1e+06 1e+06 1e+06 1e+06 1e+06 1e+06 1e+06 1e+06 1e+06 1e+06 1e+06 1e+06 1e+06 1e+06 1e+06 1e+06 1e+06 1e+06 1e+06 1e+06 1e+06 1e+06 1e+06 1e+06 1e+06 1e+06 1e+06 1e+06 1e+06 1e+06 1e+06 1e+06 1e+06 1e+06 1e+06 750000 750000 750000 750000 750000 750000 750000 750000 750000 750000 750000 750000 750000 750000 750000 750000 750000 750000 750000 750000 750000 750000 750000 750000 750000 750000 750000 750000 750000 750000 750000 750000 750000 750000 750000 750000 750000 750000 750000 750000 750000 750000 750000 750000 750000 750000 750000 750000 750000 750000 750000 750000 750000 750000 750000 750000 750000 750000 750000 750000 750000 750000 750000 750000 750000 750000 750000 750000 750000 750000 750000 750000 750