<?xml version="1.0"?>
<VTKFile byte_order="LittleEndian" type="UnstructuredGrid" version="0.1">
<UnstructuredGrid>
<Piece NumberOfCells="248" NumberOfPoints="288">
<PointData>
<DataArray Name="Depth wrt surface" format="ascii" type="Float64">
10000 10000 10000 10000 10000 10000 10000 10000 10000 10000 10000 11000 10000 10000 10000 10000 10000 10000 10000 10000 10000 10000 10000 15000 15000 15000 15000 15000 15000 15000 15000 15000 8750 8750 8750 8750 8750 8750 8750 8750 8750 8750 8750 9625 8750 8750 8750 8750 8750 8750 8750 8750 8750 8750 8750 13125 13125 13125 13125 13125 13125 13125 13125 13125 7500 7500 7500 7500 7500 7500 7500 7500 7500 7500 7500 8250 7500 7500 7500 7500 7500 7500 7500 7500 7500 7500 7500 11250 11250 11250 11250 11250 11250 11250 11250 11250 6250 6250 6250 6250 6250 6250 6250 6250 6250 6250 6250 6875 6250 6250 6250 6250 6250 6250 6250 6250 6250 6250 6250 9375 9375 9375 9375 9375 9375 9375 9375 9375 5000 5000 5000 5000 5000 5000 5000 5000 5000 5000 5000 5500 5000 5000 5000 5000 5000 5000 5000 5000 5000 5000 5000 7500 7500 7500 7500 7500 7500 7500 7500 7500 3750 3750 3750 3750 3750 3750 3750 3750 3750 3750 3750 4125 3750 3750 3750 3750 3750 3750 3750 3750 3750 3750 3750 5625 5625 5625 5625 5625 5625 5625 5625 5625 2500 2500 2500 2500 2500 2500 2500 2500 2500 2500 2500 2750 2500 2500 2500 2500 2500 2500 2500 2500 2500 2500 2500 3750 3750 3750 3750 3750 3750 3750 3750 3750 1250 1250 1250 1250 1250 1250 1250 1250 1250 1250 1250 1375 1250 1250 1250 1250 1250 1250 1250 1250 1250 1250 1250 1875 1875 1875 1875 1875 1875 1875 1875 1875 0 0 0 0 0 0 0 0 0 0 0 0 0 0 0 0 0 0 0 0 0 0 0 0 0 0 0 0 0 0 0 0 
</DataArray>
<DataArray Name="Depth wrt reference" format="ascii" type="Float64">
10000 10000 10000 10000 10000 10000 10000 10000 10000 10000 10000 10000 10000 10000 10000 10000 10000 10000 10000 10000 10000 10000 10000 10000 10000 10000 10000 10000 10000 10000 10000 10000 8750 8750 8750 8750 8750 8750 8750 8750 8750 8750 8750 8625 8750 8750 8750 8750 8750 8750 8750 8750 8750 8750 8750 8125 8125 8125 8125 8125 8125 8125 8125 8125 7500 7500 7500 7500 7500 7500 7500 7500 7500 7500 7500 7250 7500 7500 7500 7500 7500 7500 7500 7500 7500 7500 7500 6250 6250 6250 6250 6250 6250 6250 6250 6250 6250 6250 6250 6250 6250 6250 6250 6250 6250 6250 6250 5875 6250 6250 6250 6250 6250 6250 6250 6250 6250 6250 6250 4375 4375 4375 4375 4375 4375 4375 4375 4375 5000 5000 5000 5000 5000 5000 5000 5000 5000 5000 5000 4500 5000 5000 5000 5000 5000 5000 5000 5000 5000 5000 5000 2500 2500 2500 2500 2500 2500 2500 2500 2500 3750 3750 3750 3750 3750 3750 3750 3750 3750 3750 3750 3125 3750 3750 3750 3750 3750 3750 3750 3750 3750 3750 3750 625 625 625 625 625 625 625 625 625 2500 2500 2500 2500 2500 2500 2500 2500 2500 2500 2500 1750 2500 2500 2500 2500 2500 2500 2500 2500 2500 2500 2500 -1250 -1250 -1250 -1250 -1250 -1250 -1250 -1250 -1250 1250 1250 1250 1250 1250 1250 1250 1250 1250 1250 1250 375 1250 1250 1250 1250 1250 1250 1250 1250 1250 1250 1250 -3125 -3125 -3125 -3125 -3125 -3125 -3125 -3125 -3125 0 0 0 0 0 0 0 0 0 0 0 -1000 0 0 0 0 0 0 0 0 0 0 0 -5000 -5000 -5000 -5000 -5000 -5000 -5000 -5000 -5000 
</DataArray>
<DataArray Name="Topography" format="ascii" type="Float64">
0 0 0 0 0 0 0 0 0 0 0 1000 0 0 0 0 0 0 0 0 0 0 0 5000 5000 5000 5000 5000 5000 5000 5000 5000 0 0 0 0 0 0 0 0 0 0 0 1000 0 0 0 0 0 0 0 0 0 0 0 5000 5000 5000 5000 5000 5000 5000 5000 5000 0 0 0 0 0 0 0 0 0 0 0 1000 0 0 0 0 0 0 0 0 0 0 0 5000 5000 5000 5000 5000 5000 5000 5000 5000 0 0 0 0 0 0 0 0 0 0 0 1000 0 0 0 0 0 0 0 0 0 0 0 5000 5000 5000 5000 5000 5000 5000 5000 5000 0 0 0 0 0 0 0 0 0 0 0 1000 0 0 0 0 0 0 0 0 0 0 0 5000 5000 5000 5000 5000 5000 5000 5000 5000 0 0 0 0 0 0 0 0 0 0 0 1000 0 0 0 0 0 0 0 0 0 0 0 5000 5000 5000 5000 5000 5000 5000 5000 5000 0 0 0 0 0 0 0 0 0 0 0 1000 0 0 0 0 0 0 0 0 0 0 0 5000 5000 5000 5000 5000 5000 5000 5000 5000 0 0 0 0 0 0 0 0 0 0 0 1000 0 0 0 0 0 0 0 0 0 0 0 5000 5000 5000 5000 5000 5000 5000 5000 5000 0 0 0 0 0 0 0 0 0 0 0 1000 0 0 0 0 0 0 0 0 0 0 0 5000 5000 5000 5000 5000 5000 5000 5000 5000 
</DataArray>
<DataArray Name="Temperature" format="ascii" type="Float64">
1604.4 1597.44 1539.22 1460.7 1386.53 1321.52 1265.35 1216.69 1174.25 1136.91 1103.78 1133.91 1047.51 1023.36 1001.35 981.188 962.637 945.495 929.594 914.792 900.969 888.024 875.867 500 500 500 500 500 500 500 500 500 1603.85 1584.55 1491.2 1392.17 1308.07 1238.54 1180.65 1131.77 1089.91 1053.61 1021.77 1050.67 968.343 945.645 925.072 906.314 889.123 873.293 858.654 845.066 832.407 820.579 809.494 500 500 500 500 500 500 500 500 500 1603.3 1555.4 1418.49 1301.8 1211.52 1140.6 1083.42 1036.19 996.402 962.313 932.699 959.526 883.556 862.86 844.189 827.233 811.747 797.53 784.418 772.276 760.99 750.465 740.618 500 500 500 500 500 500 500 500 500 1602.75 1496.05 1314.65 1187.22 1096.19 1027.71 973.981 930.435 894.242 863.557 837.117 861.029 793.644 775.473 759.143 744.364 730.905 718.581 707.242 696.762 687.039 677.985 669.528 500 500 500 500 500 500 500 500 500 1602.2 1388.31 1174.83 1047.56 962.434 900.64 853.224 815.38 784.277 758.131 735.753 755.962 699.236 684.066 670.477 658.211 647.069 636.887 627.536 618.909 610.916 603.484 596.55 500 500 500 500 500 500 500 500 500 1601.65 1214.49 997.419 883.943 811.86 760.964 722.585 692.316 667.656 647.063 629.53 645.343 601.085 589.325 578.816 569.352 560.77 552.941 545.761 539.145 533.023 527.337 522.036 500 500 500 500 500 500 500 500 500 1601.1 965.592 785.337 699.727 647.322 611.048 584.032 562.907 545.803 531.587 519.529 530.392 500.049 492.022 484.862 478.424 472.594 467.281 462.414 457.934 453.792 449.947 446.365 500 500 500 500 500 500 500 500 500 1600.44 649.402 546.502 500.404 472.806 453.931 439.977 429.122 420.366 413.109 406.968 412.495 397.07 393.001 389.374 386.117 383.169 380.485 378.027 375.766 373.677 371.738 369.933 500 500 500 500 500 500 500 500 500 293.15 293.15 293.15 293.15 293.15 293.15 293.15 293.15 293.15 293.15 293.15 293.15 293.15 293.15 293.15 293.15 293.15 293.15 293.15 293.15 293.15 293.15 293.15 500 500 500 500 500 500 500 500 500 
</DataArray>
<DataArray Name="velocity" NumberOfComponents="3" format="ascii" type="Float64">
0 0 0 0 0 0 0 0 0 0 0 0 0 0 0 0 0 0 0 0 0 0 0 0 0 0 0 0 0 0 0 0 0 0 0 0 0 0 0 0 0 0 0 0 0 0 0 0 0 0 0 0 0 0 0 0 0 0 0 0 0 0 0 0 0 0 0 0 0 0 0 0 0 0 0 0 0 0 0 0 0 0 0 0 0 0 0 0 0 0 0 0 0 0 0 0 0 0 0 0 0 0 0 0 0 0 0 0 0 0 0 0 0 0 0 0 0 0 0 0 0 0 0 0 0 0 0 0 0 0 0 0 0 0 0 0 0 0 0 0 0 0 0 0 0 0 0 0 0 0 0 0 0 0 0 0 0 0 0 0 0 0 0 0 0 0 0 0 0 0 0 0 0 0 0 0 0 0 0 0 0 0 0 0 0 0 0 0 0 0 0 0 0 0 0 0 0 0 0 0 0 0 0 0 0 0 0 0 0 0 0 0 0 0 0 0 0 0 0 0 0 0 0 0 0 0 0 0 0 0 0 0 0 0 0 0 0 0 0 0 0 0 0 0 0 0 0 0 0 0 0 0 0 0 0 0 0 0 0 0 0 0 0 0 0 0 0 0 0 0 0 0 0 0 0 0 0 0 0 0 0 0 0 0 0 0 0 0 0 0 0 0 0 0 0 0 0 0 0 0 0 0 0 0 0 0 0 0 0 0 0 0 0 0 0 0 0 0 0 0 0 0 0 0 0 0 0 0 0 0 0 0 0 0 0 0 0 0 0 0 0 0 0 0 0 0 0 0 0 0 0 0 0 0 0 0 0 0 0 0 0 0 0 0 0 0 0 0 0 0 0 0 0 0 0 0 0 0 0 0 0 0 0 0 0 0 0 0 0 0 0 0 0 0 0 0 0 0 0 0 0 0 0 0 0 0 0 0 0 0 0 0 0 0 0 0 0 0 0 0 0 0 0 0 0 0 0 0 0 0 0 0 0 0 0 0 0 0 0 0 0 0 0 0 0 0 0 0 0 0 0 0 0 0 0 0 0 0 0 0 0 0 0 0 0 0 0 0 0 0 0 0 0 0 0 0 0 0 0 0 0 0 0 0 0 0 0 0 0 0 0 0 0 0 0 0 0 0 0 0 0 0 0 0 0 0 0 0 0 0 0 0 0 0 0 0 0 0 0 0 0 0 0 0 0 0 0 0 0 0 0 0 0 0 0 0 0 0 0 0 0 0 0 0 0 0 0 0 0 0 0 0 0 0 0 0 0 0 0 0 0 0 0 0 0 0 0 0 0 0 0 0 0 0 0 0 0 0 0 0 0 0 0 0 0 0 0 0 0 0 0 0 0 0 0 0 0 0 0 0 0 0 0 0 0 0 0 0 0 0 0 0 0 0 0 0 0 0 0 0 0 0 0 0 0 0 0 0 0 0 0 0 0 0 0 0 0 0 0 0 0 0 0 0 0 0 0 0 0 0 0 0 0 0 0 0 0 0 0 0 0 0 0 0 0 0 0 0 0 0 0 0 0 0 0 0 0 0 0 0 0 0 0 0 0 0 0 0 0 0 0 0 0 0 0 0 0 0 0 0 0 0 0 0 0 0 0 0 0 0 0 0 0 0 0 0 0 0 0 0 0 0 0 0 0 0 0 0 0 0 0 0 0 0 0 0 0 0 0 0 0 0 0 0 0 0 0 0 0 0 0 0 0 0 0 0 0 0 0 0 0 0 0 0 0 0 0 0 0 0 0 0 0 0 0 0 0 0 0 0 0 0 0 0 0 0 0 0 0 0 0 0 0 0 0 0 0 0 0 0 0 0 0 0 0 0 0 0 0 0 0 0 0 0 0 0 0 0 0 0 0 0 0 0 0 0 0 0 0 0 0 0 0 0 0 0 0 0 0 0 0 0 0 0 0 0 0 0 0 0 0 0 0 0 0 0 0 0 0 0 0 0 0 0 
</DataArray>
<DataArray Name="Tag" format="ascii" type="Float64">
1 1 1 1 1 1 1 1 1 1 1 1 1 1 1 1 1 1 1 1 1 1 1 0 0 0 0 0 0 0 0 0 1 1 1 1 1 1 1 1 1 1 1 1 1 1 1 1 1 1 1 1 1 1 1 0 0 0 0 0 0 0 0 0 1 1 1 1 1 1 1 1 1 1 1 1 1 1 1 1 1 1 1 1 1 1 1 0 0 0 0 0 0 0 0 0 1 1 1 1 1 1 1 1 1 1 1 1 1 1 1 1 1 1 1 1 1 1 1 0 0 0 0 0 0 0 0 0 1 1 1 1 1 1 1 1 1 1 1 1 1 1 1 1 1 1 1 1 1 1 1 0 0 0 0 0 0 0 0 0 1 1 1 1 1 1 1 1 1 1 1 1 1 1 1 1 1 1 1 1 1 1 1 0 0 0 0 0 0 0 0 0 1 1 1 1 1 1 1 1 1 1 1 1 1 1 1 1 1 1 1 1 1 1 1 0 0 0 0 0 0 0 0 0 1 1 1 1 1 1 1 1 1 1 1 1 1 1 1 1 1 1 1 1 1 1 1 0 0 0 0 0 0 0 0 0 1 1 1 1 1 1 1 1 1 1 1 1 1 1 1 1 1 1 1 1 1 1 1 0 0 0 0 0 0 0 0 0 
</DataArray>
<DataArray Name="Composition 0" format="ascii" type="Float64">
0 0 0 0 0 0 0 0 0 0 0 0 0 0 0 0 0 0 0 0 0 0 0 0 0 0 0 0 0 0 0 0 0 0 0 0 0 0 0 0 0 0 0 0 0 0 0 0 0 0 0 0 0 0 0 0 0 0 0 0 0 0 0 0 0 0 0 0 0 0 0 0 0 0 0 0 0 0 0 0 0 0 0 0 0 0 0 0 0 0 0 0 0 0 0 0 0 0 0 0 0 0 0 0 0 0 0 0 0 0 0 0 0 0 0 0 0 0 0 0 0 0 0 0 0 0 0 0 0 0 0 0 0 0 0 0 0 0 0 0 0 0 0 0 0 0 0 0 0 0 0 0 0 0 0 0 0 0 0 0 0 0 0 0 0 0 0 0 0 0 0 0 0 0 0 0 0 0 0 0 0 0 0 0 0 0 0 0 0 0 0 0 0 0 0 0 0 0 0 0 0 0 0 0 0 0 0 0 0 0 0 0 0 0 0 0 0 0 0 0 0 0 0 0 0 0 0 0 0 0 0 0 0 0 0 0 0 0 0 0 0 0 0 0 0 0 0 0 0 0 0 0 0 0 0 0 0 0 0 0 0 0 0 0 0 0 0 0 0 0 0 0 0 0 0 0 0 0 0 0 0 0 0 0 0 0 0 0 
</DataArray>
<DataArray Name="Composition 1" format="ascii" type="Float64">
0 0 0 0 0 0 0 0 0 0 0 0 0 0 0 0 0 0 0 0 0 0 0 0 0 0 0 0 0 0 0 0 0 0 0 0 0 0 0 0 0 0 0 0 0 0 0 0 0 0 0 0 0 0 0 0 0 0 0 0 0 0 0 0 0 0 0 0 0 0 0 0 0 0 0 0 0 0 0 0 0 0 0 0 0 0 0 0 0 0 0 0 0 0 0 0 0 0 0 0 0 0 0 0 0 0 0 0 0 0 0 0 0 0 0 0 0 0 0 0 0 0 0 0 0 0 0 0 0 0 0 0 0 0 0 0 0 0 0 0 0 0 0 0 0 0 0 0 0 0 0 0 0 0 0 0 0 0 0 0 0 0 0 0 0 0 0 0 0 0 0 0 0 0 0 0 0 0 0 0 0 0 0 0 0 0 0 0 0 0 0 0 0 0 0 0 0 0 0 0 0 0 0 0 0 0 0 0 0 0 0 0 0 0 0 0 0 0 0 0 0 0 0 0 0 0 0 0 0 0 0 0 0 0 0 0 0 0 0 0 0 0 0 0 0 0 0 0 0 0 0 0 0 0 0 0 0 0 0 0 0 0 0 0 0 0 0 0 0 0 0 0 0 0 0 0 0 0 0 0 0 0 0 0 0 0 0 0 
</DataArray>
<DataArray Name="Composition 2" format="ascii" type="Float64">
0 0 0 0 0 0 0 0 0 0 0 0 0 0 0 0 0 0 0 0 0 0 0 0 0 0 0 0 0 0 0 0 0 0 0 0 0 0 0 0 0 0 0 0 0 0 0 0 0 0 0 0 0 0 0 0 0 0 0 0 0 0 0 0 0 0 0 0 0 0 0 0 0 0 0 0 0 0 0 0 0 0 0 0 0 0 0 0 0 0 0 0 0 0 0 0 0 0 0 0 0 0 0 0 0 0 0 0 0 0 0 0 0 0 0 0 0 0 0 0 0 0 0 0 0 0 0 0 0 0 0 0 0 0 0 0 0 0 0 0 0 0 0 0 0 0 0 0 0 0 0 0 0 0 0 0 0 0 0 0 0 0 0 0 0 0 0 0 0 0 0 0 0 0 0 0 0 0 0 0 0 0 0 0 0 0 0 0 0 0 0 0 0 0 0 0 0 0 0 0 0 0 0 0 0 0 0 0 0 0 0 0 0 0 0 0 0 0 0 0 0 0 0 0 0 0 0 0 0 0 0 0 0 0 0 0 0 0 0 0 0 0 0 0 0 0 0 0 0 0 0 0 0 0 0 0 0 0 0 0 0 0 0 0 0 0 0 0 0 0 0 0 0 0 0 0 0 0 0 0 0 0 0 0 0 0 0 0 
</DataArray>
</PointData>
<CellData>
</CellData>
<Points>
<DataArray NumberOfComponents="3" format="ascii" type="Float64">
0 0 0 1290.32 0 0 2580.65 0 0 3870.97 0 0 5161.29 0 0 6451.61 0 0 7741.94 0 0 9032.26 0 0 10322.6 0 0 11612.9 0 0 12903.2 0 0 14193.5 0 0 15483.9 0 0 16774.2 0 0 18064.5 0 0 19354.8 0 0 20645.2 0 0 21935.5 0 0 23225.8 0 0 24516.1 0 0 25806.5 0 0 27096.8 0 0 28387.1 0 0 29677.4 0 0 30967.7 0 0 32258.1 0 0 33548.4 0 0 34838.7 0 0 36129 0 0 37419.4 0 0 38709.7 0 0 40000 0 0 0 1250 0 1290.32 1250 0 2580.65 1250 0 3870.97 1250 0 5161.29 1250 0 6451.61 1250 0 7741.94 1250 0 9032.26 1250 0 10322.6 1250 0 11612.9 1250 0 12903.2 1250 0 14193.5 1375 0 15483.9 1250 0 16774.2 1250 0 18064.5 1250 0 19354.8 1250 0 20645.2 1250 0 21935.5 1250 0 23225.8 1250 0 24516.1 1250 0 25806.5 1250 0 27096.8 1250 0 28387.1 1250 0 29677.4 1875 0 30967.7 1875 0 32258.1 1875 0 33548.4 1875 0 34838.7 1875 0 36129 1875 0 37419.4 1875 0 38709.7 1875 0 40000 1875 0 0 2500 0 1290.32 2500 0 2580.65 2500 0 3870.97 2500 0 5161.29 2500 0 6451.61 2500 0 7741.94 2500 0 9032.26 2500 0 10322.6 2500 0 11612.9 2500 0 12903.2 2500 0 14193.5 2750 0 15483.9 2500 0 16774.2 2500 0 18064.5 2500 0 19354.8 2500 0 20645.2 2500 0 21935.5 2500 0 23225.8 2500 0 24516.1 2500 0 25806.5 2500 0 27096.8 2500 0 28387.1 2500 0 29677.4 3750 0 30967.7 3750 0 32258.1 3750 0 33548.4 3750 0 34838.7 3750 0 36129 3750 0 37419.4 3750 0 38709.7 3750 0 40000 3750 0 0 3750 0 1290.32 3750 0 2580.65 3750 0 3870.97 3750 0 5161.29 3750 0 6451.61 3750 0 7741.94 3750 0 9032.26 3750 0 10322.6 3750 0 11612.9 3750 0 12903.2 3750 0 14193.5 4125 0 15483.9 3750 0 16774.2 3750 0 18064.5 3750 0 19354.8 3750 0 20645.2 3750 0 21935.5 3750 0 23225.8 3750 0 24516.1 3750 0 25806.5 3750 0 27096.8 3750 0 28387.1 3750 0 29677.4 5625 0 30967.7 5625 0 32258.1 5625 0 33548.4 5625 0 34838.7 5625 0 36129 5625 0 37419.4 5625 0 38709.7 5625 0 40000 5625 0 0 5000 0 1290.32 5000 0 2580.65 5000 0 3870.97 5000 0 5161.29 5000 0 6451.61 5000 0 7741.94 5000 0 9032.26 5000 0 10322.6 5000 0 11612.9 5000 0 12903.2 5000 0 14193.5 5500 0 15483.9 5000 0 16774.2 5000 0 18064.5 5000 0 19354.8 5000 0 20645.2 5000 0 21935.5 5000 0 23225.8 5000 0 24516.1 5000 0 25806.5 5000 0 27096.8 5000 0 28387.1 5000 0 29677.4 7500 0 30967.7 7500 0 32258.1 7500 0 33548.4 7500 0 34838.7 7500 0 36129 7500 0 37419.4 7500 0 38709.7 7500 0 40000 7500 0 0 6250 0 1290.32 6250 0 2580.65 6250 0 3870.97 6250 0 5161.29 6250 0 6451.61 6250 0 7741.94 6250 0 9032.26 6250 0 10322.6 6250 0 11612.9 6250 0 12903.2 6250 0 14193.5 6875 0 15483.9 6250 0 16774.2 6250 0 18064.5 6250 0 19354.8 6250 0 20645.2 6250 0 21935.5 6250 0 23225.8 6250 0 24516.1 6250 0 25806.5 6250 0 27096.8 6250 0 28387.1 6250 0 29677.4 9375 0 30967.7 9375 0 32258.1 9375 0 33548.4 9375 0 34838.7 9375 0 36129 9375 0 37419.4 9375 0 38709.7 9375 0 40000 9375 0 0 7500 0 1290.32 7500 0 2580.65 7500 0 3870.97 7500 0 5161.29 7500 0 6451.61 7500 0 7741.94 7500 0 9032.26 7500 0 10322.6 7500 0 11612.9 7500 0 12903.2 7500 0 14193.5 8250 0 15483.9 7500 0 16774.2 7500 0 18064.5 7500 0 19354.8 7500 0 20645.2 7500 0 21935.5 7500 0 23225.8 7500 0 24516.1 7500 0 25806.5 7500 0 27096.8 7500 0 28387.1 7500 0 29677.4 11250 0 30967.7 11250 0 32258.1 11250 0 33548.4 11250 0 34838.7 11250 0 36129 11250 0 37419.4 11250 0 38709.7 11250 0 40000 11250 0 0 8750 0 1290.32 8750 0 2580.65 8750 0 3870.97 8750 0 5161.29 8750 0 6451.61 8750 0 7741.94 8750 0 9032.26 8750 0 10322.6 8750 0 11612.9 8750 0 12903.2 8750 0 14193.5 9625 0 15483.9 8750 0 16774.2 8750 0 18064.5 8750 0 19354.8 8750 0 20645.2 8750 0 21935.5 8750 0 23225.8 8750 0 24516.1 8750 0 25806.5 8750 0 27096.8 8750 0 28387.1 8750 0 29677.4 13125 0 30967.7 13125 0 32258.1 13125 0 33548.4 13125 0 34838.7 13125 0 36129 13125 0 37419.4 13125 0 38709.7 13125 0 40000 13125 0 0 10000 0 1290.32 10000 0 2580.65 10000 0 3870.97 10000 0 5161.29 10000 0 6451.61 10000 0 7741.94 10000 0 9032.26 10000 0 10322.6 10000 0 11612.9 10000 0 12903.2 10000 0 14193.5 11000 0 15483.9 10000 0 16774.2 10000 0 18064.5 10000 0 19354.8 10000 0 20645.2 10000 0 21935.5 10000 0 23225.8 10000 0 24516.1 10000 0 25806.5 10000 0 27096.8 10000 0 28387.1 10000 0 29677.4 15000 0 30967.7 15000 0 32258.1 15000 0 33548.4 15000 0 34838.7 15000 0 36129 15000 0 37419.4 15000 0 38709.7 15000 0 40000 15000 0 
</DataArray>
</Points>
<Cells>
<DataArray Name="connectivity" format="ascii" type="Int64">
0 1 33 32 1 2 34 33 2 3 35 34 3 4 36 35 4 5 37 36 5 6 38 37 6 7 39 38 7 8 40 39 8 9 41 40 9 10 42 41 10 11 43 42 11 12 44 43 12 13 45 44 13 14 46 45 14 15 47 46 15 16 48 47 16 17 49 48 17 18 50 49 18 19 51 50 19 20 52 51 20 21 53 52 21 22 54 53 22 23 55 54 23 24 56 55 24 25 57 56 25 26 58 57 26 27 59 58 27 28 60 59 28 29 61 60 29 30 62 61 30 31 63 62 32 33 65 64 33 34 66 65 34 35 67 66 35 36 68 67 36 37 69 68 37 38 70 69 38 39 71 70 39 40 72 71 40 41 73 72 41 42 74 73 42 43 75 74 43 44 76 75 44 45 77 76 45 46 78 77 46 47 79 78 47 48 80 79 48 49 81 80 49 50 82 81 50 51 83 82 51 52 84 83 52 53 85 84 53 54 86 85 54 55 87 86 55 56 88 87 56 57 89 88 57 58 90 89 58 59 91 90 59 60 92 91 60 61 93 92 61 62 94 93 62 63 95 94 64 65 97 96 65 66 98 97 66 67 99 98 67 68 100 99 68 69 101 100 69 70 102 101 70 71 103 102 71 72 104 103 72 73 105 104 73 74 106 105 74 75 107 106 75 76 108 107 76 77 109 108 77 78 110 109 78 79 111 110 79 80 112 111 80 81 113 112 81 82 114 113 82 83 115 114 83 84 116 115 84 85 117 116 85 86 118 117 86 87 119 118 87 88 120 119 88 89 121 120 89 90 122 121 90 91 123 122 91 92 124 123 92 93 125 124 93 94 126 125 94 95 127 126 96 97 129 128 97 98 130 129 98 99 131 130 99 100 132 131 100 101 133 132 101 102 134 133 102 103 135 134 103 104 136 135 104 105 137 136 105 106 138 137 106 107 139 138 107 108 140 139 108 109 141 140 109 110 142 141 110 111 143 142 111 112 144 143 112 113 145 144 113 114 146 145 114 115 147 146 115 116 148 147 116 117 149 148 117 118 150 149 118 119 151 150 119 120 152 151 120 121 153 152 121 122 154 153 122 123 155 154 123 124 156 155 124 125 157 156 125 126 158 157 126 127 159 158 128 129 161 160 129 130 162 161 130 131 163 162 131 132 164 163 132 133 165 164 133 134 166 165 134 135 167 166 135 136 168 167 136 137 169 168 137 138 170 169 138 139 171 170 139 140 172 171 140 141 173 172 141 142 174 173 142 143 175 174 143 144 176 175 144 145 177 176 145 146 178 177 146 147 179 178 147 148 180 179 148 149 181 180 149 150 182 181 150 151 183 182 151 152 184 183 152 153 185 184 153 154 186 185 154 155 187 186 155 156 188 187 156 157 189 188 157 158 190 189 158 159 191 190 160 161 193 192 161 162 194 193 162 163 195 194 163 164 196 195 164 165 197 196 165 166 198 197 166 167 199 198 167 168 200 199 168 169 201 200 169 170 202 201 170 171 203 202 171 172 204 203 172 173 205 204 173 174 206 205 174 175 207 206 175 176 208 207 176 177 209 208 177 178 210 209 178 179 211 210 179 180 212 211 180 181 213 212 181 182 214 213 182 183 215 214 183 184 216 215 184 185 217 216 185 186 218 217 186 187 219 218 187 188 220 219 188 189 221 220 189 190 222 221 190 191 223 222 192 193 225 224 193 194 226 225 194 195 227 226 195 196 228 227 196 197 229 228 197 198 230 229 198 199 231 230 199 200 232 231 200 201 233 232 201 202 234 233 202 203 235 234 203 204 236 235 204 205 237 236 205 206 238 237 206 207 239 238 207 208 240 239 208 209 241 240 209 210 242 241 210 211 243 242 211 212 244 243 212 213 245 244 213 214 246 245 214 215 247 246 215 216 248 247 216 217 249 248 217 218 250 249 218 219 251 250 219 220 252 251 220 221 253 252 221 222 254 253 222 223 255 254 224 225 257 256 225 226 258 257 226 227 259 258 227 228 260 259 228 229 261 260 229 230 262 261 230 231 263 262 231 232 264 263 232 233 265 264 233 234 266 265 234 235 267 266 235 236 268 267 236 237 269 268 237 238 270 269 238 239 271 270 239 240 272 271 240 241 273 272 241 242 274 273 242 243 275 274 243 244 276 275 244 245 277 276 245 246 278 277 246 247 279 278 247 248 280 279 248 249 281 280 249 250 282 281 250 251 283 282 251 252 284 283 252 253 285 284 253 254 286 285 254 255 287 286 
</DataArray>
<DataArray Name="offsets" format="ascii" type="Int64">
4 8 12 16 20 24 28 32 36 40 44 48 52 56 60 64 68 72 76 80 84 88 92 96 100 104 108 112 116 120 124 128 132 136 140 144 148 152 156 160 164 168 172 176 180 184 188 192 196 200 204 208 212 216 220 224 228 232 236 240 244 248 252 256 260 264 268 272 276 280 284 288 292 296 300 304 308 312 316 320 324 328 332 336 340 344 348 352 356 360 364 368 372 376 380 384 388 392 396 400 404 408 412 416 420 424 428 432 436 440 444 448 452 456 460 464 468 472 476 480 484 488 492 496 500 504 508 512 516 520 524 528 532 536 540 544 548 552 556 560 564 568 572 576 580 584 588 592 596 600 604 608 612 616 620 624 628 632 636 640 644 648 652 656 660 664 668 672 676 680 684 688 692 696 700 704 708 712 716 720 724 728 732 736 740 744 748 752 756 760 764 768 772 776 780 784 788 792 796 800 804 808 812 816 820 824 828 832 836 840 844 848 852 856 860 864 868 872 876 880 884 888 892 896 900 904 908 912 916 920 924 928 932 936 940 944 948 952 956 960 964 968 972 976 980 984 988 992 
</DataArray>
<DataArray Name="types" format="ascii" type="Int8">
9 9 9 9 9 9 9 9 9 9 9 9 9 9 9 9 9 9 9 9 9 9 9 9 9 9 9 9 9 9 9 9 9 9 9 9 9 9 9 9 9 9 9 9 9 9 9 9 9 9 9 9 9 9 9 9 9 9 9 9 9 9 9 9 9 9 9 9 9 9 9 9 9 9 9 9 9 9 9 9 9 9 9 9 9 9 9 9 9 9 9 9 9 9 9 9 9 9 9 9 9 9 9 9 9 9 9 9 9 9 9 9 9 9 9 9 9 9 9 9 9 9 9 9 9 9 9 9 9 9 9 9 9 9 9 9 9 9 9 9 9 9 9 9 9 9 9 9 9 9 9 9 9 9 9 9 9 9 9 9 9 9 9 9 9 9 9 9 9 9 9 9 9 9 9 9 9 9 9 9 9 9 9 9 9 9 9 9 9 9 9 9 9 9 9 9 9 9 9 9 9 9 9 9 9 9 9 9 9 9 9 9 9 9 9 9 9 9 9 9 9 9 9 9 9 9 9 9 9 9 9 9 9 9 9 9 9 9 9 9 9 9 9 9 9 9 9 9 
</DataArray>
</Cells>
</Piece>
</UnstructuredGrid>
</VTKFile>
