<?xml version="1.0"?>
<VTKFile byte_order="LittleEndian" type="UnstructuredGrid" version="0.1">
<UnstructuredGrid>
<Piece NumberOfCells="3720" NumberOfPoints="4608">
<PointData>
<DataArray Name="Depth wrt surface" format="ascii" type="Float64">
10000 8750 7500 6250 5000 3750 2500 1250 0 10000 8750 7500 6250 5000 3750 2500 1250 0 10000 8750 7500 6250 5000 3750 2500 1250 0 10000 8750 7500 6250 5000 3750 2500 1250 0 10000 8750 7500 6250 5000 3750 2500 1250 0 10000 8750 7500 6250 5000 3750 2500 1250 0 10000 8750 7500 6250 5000 3750 2500 1250 0 10000 8750 7500 6250 5000 3750 2500 1250 0 10000 8750 7500 6250 5000 3750 2500 1250 0 10000 8750 7500 6250 5000 3750 2500 1250 0 15000 13125 11250 9375 7500 5625 3750 1875 0 15000 13125 11250 9375 7500 5625 3750 1875 0 15000 13125 11250 9375 7500 5625 3750 1875 0 15000 13125 11250 9375 7500 5625 3750 1875 0 15000 13125 11250 9375 7500 5625 3750 1875 0 15000 13125 11250 9375 7500 5625 3750 1875 0 10000 8750 7500 6250 5000 3750 2500 1250 0 10000 8750 7500 6250 5000 3750 2500 1250 0 10000 8750 7500 6250 5000 3750 2500 1250 0 10000 8750 7500 6250 5000 3750 2500 1250 0 10000 8750 7500 6250 5000 3750 2500 1250 0 10000 8750 7500 6250 5000 3750 2500 1250 0 10000 8750 7500 6250 5000 3750 2500 1250 0 10000 8750 7500 6250 5000 3750 2500 1250 0 10000 8750 7500 6250 5000 3750 2500 1250 0 10000 8750 7500 6250 5000 3750 2500 1250 0 15000 13125 11250 9375 7500 5625 3750 1875 0 15000 13125 11250 9375 7500 5625 3750 1875 0 15000 13125 11250 9375 7500 5625 3750 1875 0 15000 13125 11250 9375 7500 5625 3750 1875 0 15000 13125 11250 9375 7500 5625 3750 1875 0 15000 13125 11250 9375 7500 5625 3750 1875 0 10000 8750 7500 6250 5000 3750 2500 1250 0 10000 8750 7500 6250 5000 3750 2500 1250 0 10000 8750 7500 6250 5000 3750 2500 1250 0 10000 8750 7500 6250 5000 3750 2500 1250 0 10000 8750 7500 6250 5000 3750 2500 1250 0 10000 8750 7500 6250 5000 3750 2500 1250 0 10000 8750 7500 6250 5000 3750 2500 1250 0 10000 8750 7500 6250 5000 3750 2500 1250 0 10000 8750 7500 6250 5000 3750 2500 1250 0 10000 8750 7500 6250 5000 3750 2500 1250 0 15000 13125 11250 9375 7500 5625 3750 1875 0 15000 13125 11250 9375 7500 5625 3750 1875 0 15000 13125 11250 9375 7500 5625 3750 1875 0 15000 13125 11250 9375 7500 5625 3750 1875 0 15000 13125 11250 9375 7500 5625 3750 1875 0 15000 13125 11250 9375 7500 5625 3750 1875 0 10000 8750 7500 6250 5000 3750 2500 1250 0 10000 8750 7500 6250 5000 3750 2500 1250 0 10000 8750 7500 6250 5000 3750 2500 1250 0 10000 8750 7500 6250 5000 3750 2500 1250 0 10000 8750 7500 6250 5000 3750 2500 1250 0 10000 8750 7500 6250 5000 3750 2500 1250 0 10000 8750 7500 6250 5000 3750 2500 1250 0 10000 8750 7500 6250 5000 3750 2500 1250 0 10000 8750 7500 6250 5000 3750 2500 1250 0 10000 8750 7500 6250 5000 3750 2500 1250 0 15000 13125 11250 9375 7500 5625 3750 1875 0 15000 13125 11250 9375 7500 5625 3750 1875 0 15000 13125 11250 9375 7500 5625 3750 1875 0 15000 13125 11250 9375 7500 5625 3750 1875 0 15000 13125 11250 9375 7500 5625 3750 1875 0 15000 13125 11250 9375 7500 5625 3750 1875 0 10000 8750 7500 6250 5000 3750 2500 1250 0 10000 8750 7500 6250 5000 3750 2500 1250 0 10000 8750 7500 6250 5000 3750 2500 1250 0 10000 8750 7500 6250 5000 3750 2500 1250 0 10000 8750 7500 6250 5000 3750 2500 1250 0 10000 8750 7500 6250 5000 3750 2500 1250 0 10000 8750 7500 6250 5000 3750 2500 1250 0 10000 8750 7500 6250 5000 3750 2500 1250 0 10000 8750 7500 6250 5000 3750 2500 1250 0 10000 8750 7500 6250 5000 3750 2500 1250 0 15000 13125 11250 9375 7500 5625 3750 1875 0 15000 13125 11250 9375 7500 5625 3750 1875 0 15000 13125 11250 9375 7500 5625 3750 1875 0 15000 13125 11250 9375 7500 5625 3750 1875 0 15000 13125 11250 9375 7500 5625 3750 1875 0 15000 13125 11250 9375 7500 5625 3750 1875 0 10000 8750 7500 6250 5000 3750 2500 1250 0 10000 8750 7500 6250 5000 3750 2500 1250 0 10000 8750 7500 6250 5000 3750 2500 1250 0 10000 8750 7500 6250 5000 3750 2500 1250 0 10000 8750 7500 6250 5000 3750 2500 1250 0 10000 8750 7500 6250 5000 3750 2500 1250 0 10000 8750 7500 6250 5000 3750 2500 1250 0 10000 8750 7500 6250 5000 3750 2500 1250 0 10000 8750 7500 6250 5000 3750 2500 1250 0 10000 8750 7500 6250 5000 3750 2500 1250 0 15000 13125 11250 9375 7500 5625 3750 1875 0 15000 13125 11250 9375 7500 5625 3750 1875 0 15000 13125 11250 9375 7500 5625 3750 1875 0 15000 13125 11250 9375 7500 5625 3750 1875 0 15000 13125 11250 9375 7500 5625 3750 1875 0 15000 13125 11250 9375 7500 5625 3750 1875 0 10000 8750 7500 6250 5000 3750 2500 1250 0 10000 8750 7500 6250 5000 3750 2500 1250 0 10000 8750 7500 6250 5000 3750 2500 1250 0 10000 8750 7500 6250 5000 3750 2500 1250 0 10000 8750 7500 6250 5000 3750 2500 1250 0 10000 8750 7500 6250 5000 3750 2500 1250 0 10000 8750 7500 6250 5000 3750 2500 1250 0 10000 8750 7500 6250 5000 3750 2500 1250 0 10000 8750 7500 6250 5000 3750 2500 1250 0 10000 8750 7500 6250 5000 3750 2500 1250 0 15000 13125 11250 9375 7500 5625 3750 1875 0 15000 13125 11250 9375 7500 5625 3750 1875 0 15000 13125 11250 9375 7500 5625 3750 1875 0 15000 13125 11250 9375 7500 5625 3750 1875 0 15000 13125 11250 9375 7500 5625 3750 1875 0 15000 13125 11250 9375 7500 5625 3750 1875 0 10000 8750 7500 6250 5000 3750 2500 1250 0 10000 8750 7500 6250 5000 3750 2500 1250 0 10000 8750 7500 6250 5000 3750 2500 1250 0 10000 8750 7500 6250 5000 3750 2500 1250 0 10000 8750 7500 6250 5000 3750 2500 1250 0 10000 8750 7500 6250 5000 3750 2500 1250 0 10000 8750 7500 6250 5000 3750 2500 1250 0 10000 8750 7500 6250 5000 3750 2500 1250 0 10000 8750 7500 6250 5000 3750 2500 1250 0 10000 8750 7500 6250 5000 3750 2500 1250 0 15000 13125 11250 9375 7500 5625 3750 1875 0 15000 13125 11250 9375 7500 5625 3750 1875 0 15000 13125 11250 9375 7500 5625 3750 1875 0 15000 13125 11250 9375 7500 5625 3750 1875 0 15000 13125 11250 9375 7500 5625 3750 1875 0 15000 13125 11250 9375 7500 5625 3750 1875 0 10000 8750 7500 6250 5000 3750 2500 1250 0 10000 8750 7500 6250 5000 3750 2500 1250 0 10000 8750 7500 6250 5000 3750 2500 1250 0 10000 8750 7500 6250 5000 3750 2500 1250 0 10000 8750 7500 6250 5000 3750 2500 1250 0 10000 8750 7500 6250 5000 3750 2500 1250 0 10000 8750 7500 6250 5000 3750 2500 1250 0 10000 8750 7500 6250 5000 3750 2500 1250 0 10000 8750 7500 6250 5000 3750 2500 1250 0 10000 8750 7500 6250 5000 3750 2500 1250 0 15000 13125 11250 9375 7500 5625 3750 1875 0 15000 13125 11250 9375 7500 5625 3750 1875 0 9000 7875 6750 5625 4500 3375 2250 1125 0 9000 7875 6750 5625 4500 3375 2250 1125 0 9000 7875 6750 5625 4500 3375 2250 1125 0 9000 7875 6750 5625 4500 3375 2250 1125 0 10000 8750 7500 6250 5000 3750 2500 1250 0 10000 8750 7500 6250 5000 3750 2500 1250 0 10000 8750 7500 6250 5000 3750 2500 1250 0 10000 8750 7500 6250 5000 3750 2500 1250 0 10000 8750 7500 6250 5000 3750 2500 1250 0 10000 8750 7500 6250 5000 3750 2500 1250 0 10000 8750 7500 6250 5000 3750 2500 1250 0 10000 8750 7500 6250 5000 3750 2500 1250 0 10000 8750 7500 6250 5000 3750 2500 1250 0 10000 8750 7500 6250 5000 3750 2500 1250 0 15000 13125 11250 9375 7500 5625 3750 1875 0 15000 13125 11250 9375 7500 5625 3750 1875 0 9000 7875 6750 5625 4500 3375 2250 1125 0 9000 7875 6750 5625 4500 3375 2250 1125 0 9000 7875 6750 5625 4500 3375 2250 1125 0 9000 7875 6750 5625 4500 3375 2250 1125 0 10000 8750 7500 6250 5000 3750 2500 1250 0 10000 8750 7500 6250 5000 3750 2500 1250 0 10000 8750 7500 6250 5000 3750 2500 1250 0 11000 9625 8250 6875 5500 4125 2750 1375 0 11000 9625 8250 6875 5500 4125 2750 1375 0 11000 9625 8250 6875 5500 4125 2750 1375 0 10000 8750 7500 6250 5000 3750 2500 1250 0 10000 8750 7500 6250 5000 3750 2500 1250 0 10000 8750 7500 6250 5000 3750 2500 1250 0 10000 8750 7500 6250 5000 3750 2500 1250 0 15000 13125 11250 9375 7500 5625 3750 1875 0 15000 13125 11250 9375 7500 5625 3750 1875 0 9000 7875 6750 5625 4500 3375 2250 1125 0 9000 7875 6750 5625 4500 3375 2250 1125 0 9000 7875 6750 5625 4500 3375 2250 1125 0 9000 7875 6750 5625 4500 3375 2250 1125 0 10000 8750 7500 6250 5000 3750 2500 1250 0 10000 8750 7500 6250 5000 3750 2500 1250 0 10000 8750 7500 6250 5000 3750 2500 1250 0 11000 9625 8250 6875 5500 4125 2750 1375 0 11000 9625 8250 6875 5500 4125 2750 1375 0 11000 9625 8250 6875 5500 4125 2750 1375 0 10000 8750 7500 6250 5000 3750 2500 1250 0 10000 8750 7500 6250 5000 3750 2500 1250 0 10000 8750 7500 6250 5000 3750 2500 1250 0 10000 8750 7500 6250 5000 3750 2500 1250 0 15000 13125 11250 9375 7500 5625 3750 1875 0 15000 13125 11250 9375 7500 5625 3750 1875 0 9000 7875 6750 5625 4500 3375 2250 1125 0 9000 7875 6750 5625 4500 3375 2250 1125 0 9000 7875 6750 5625 4500 3375 2250 1125 0 9000 7875 6750 5625 4500 3375 2250 1125 0 10000 8750 7500 6250 5000 3750 2500 1250 0 10000 8750 7500 6250 5000 3750 2500 1250 0 10000 8750 7500 6250 5000 3750 2500 1250 0 11000 9625 8250 6875 5500 4125 2750 1375 0 11000 9625 8250 6875 5500 4125 2750 1375 0 11000 9625 8250 6875 5500 4125 2750 1375 0 10000 8750 7500 6250 5000 3750 2500 1250 0 10000 8750 7500 6250 5000 3750 2500 1250 0 10000 8750 7500 6250 5000 3750 2500 1250 0 10000 8750 7500 6250 5000 3750 2500 1250 0 15000 13125 11250 9375 7500 5625 3750 1875 0 15000 13125 11250 9375 7500 5625 3750 1875 0 9000 7875 6750 5625 4500 3375 2250 1125 0 9000 7875 6750 5625 4500 3375 2250 1125 0 9000 7875 6750 5625 4500 3375 2250 1125 0 9000 7875 6750 5625 4500 3375 2250 1125 0 10000 8750 7500 6250 5000 3750 2500 1250 0 10000 8750 7500 6250 5000 3750 2500 1250 0 10000 8750 7500 6250 5000 3750 2500 1250 0 11000 9625 8250 6875 5500 4125 2750 1375 0 11000 9625 8250 6875 5500 4125 2750 1375 0 11000 9625 8250 6875 5500 4125 2750 1375 0 10000 8750 7500 6250 5000 3750 2500 1250 0 10000 8750 7500 6250 5000 3750 2500 1250 0 10000 8750 7500 6250 5000 3750 2500 1250 0 10000 8750 7500 6250 5000 3750 2500 1250 0 15000 13125 11250 9375 7500 5625 3750 1875 0 15000 13125 11250 9375 7500 5625 3750 1875 0 9000 7875 6750 5625 4500 3375 2250 1125 0 9000 7875 6750 5625 4500 3375 2250 1125 0 9000 7875 6750 5625 4500 3375 2250 1125 0 9000 7875 6750 5625 4500 3375 2250 1125 0 10000 8750 7500 6250 5000 3750 2500 1250 0 10000 8750 7500 6250 5000 3750 2500 1250 0 10000 8750 7500 6250 5000 3750 2500 1250 0 10000 8750 7500 6250 5000 3750 2500 1250 0 10000 8750 7500 6250 5000 3750 2500 1250 0 10000 8750 7500 6250 5000 3750 2500 1250 0 10000 8750 7500 6250 5000 3750 2500 1250 0 10000 8750 7500 6250 5000 3750 2500 1250 0 10000 8750 7500 6250 5000 3750 2500 1250 0 10000 8750 7500 6250 5000 3750 2500 1250 0 15000 13125 11250 9375 7500 5625 3750 1875 0 15000 13125 11250 9375 7500 5625 3750 1875 0 9000 7875 6750 5625 4500 3375 2250 1125 0 9000 7875 6750 5625 4500 3375 2250 1125 0 9000 7875 6750 5625 4500 3375 2250 1125 0 9000 7875 6750 5625 4500 3375 2250 1125 0 10000 8750 7500 6250 5000 3750 2500 1250 0 10000 8750 7500 6250 5000 3750 2500 1250 0 10000 8750 7500 6250 5000 3750 2500 1250 0 10000 8750 7500 6250 5000 3750 2500 1250 0 10000 8750 7500 6250 5000 3750 2500 1250 0 10000 8750 7500 6250 5000 3750 2500 1250 0 10000 8750 7500 6250 5000 3750 2500 1250 0 10000 8750 7500 6250 5000 3750 2500 1250 0 10000 8750 7500 6250 5000 3750 2500 1250 0 10000 8750 7500 6250 5000 3750 2500 1250 0 15000 13125 11250 9375 7500 5625 3750 1875 0 15000 13125 11250 9375 7500 5625 3750 1875 0 9000 7875 6750 5625 4500 3375 2250 1125 0 9000 7875 6750 5625 4500 3375 2250 1125 0 9000 7875 6750 5625 4500 3375 2250 1125 0 9000 7875 6750 5625 4500 3375 2250 1125 0 10000 8750 7500 6250 5000 3750 2500 1250 0 10000 8750 7500 6250 5000 3750 2500 1250 0 10000 8750 7500 6250 5000 3750 2500 1250 0 10000 8750 7500 6250 5000 3750 2500 1250 0 10000 8750 7500 6250 5000 3750 2500 1250 0 10000 8750 7500 6250 5000 3750 2500 1250 0 10000 8750 7500 6250 5000 3750 2500 1250 0 10000 8750 7500 6250 5000 3750 2500 1250 0 10000 8750 7500 6250 5000 3750 2500 1250 0 10000 8750 7500 6250 5000 3750 2500 1250 0 15000 13125 11250 9375 7500 5625 3750 1875 0 15000 13125 11250 9375 7500 5625 3750 1875 0 17000 14875 12750 10625 8500 6375 4250 2125 0 17000 14875 12750 10625 8500 6375 4250 2125 0 17000 14875 12750 10625 8500 6375 4250 2125 0 17000 14875 12750 10625 8500 6375 4250 2125 0 10000 8750 7500 6250 5000 3750 2500 1250 0 10000 8750 7500 6250 5000 3750 2500 1250 0 10000 8750 7500 6250 5000 3750 2500 1250 0 10000 8750 7500 6250 5000 3750 2500 1250 0 10000 8750 7500 6250 5000 3750 2500 1250 0 10000 8750 7500 6250 5000 3750 2500 1250 0 10000 8750 7500 6250 5000 3750 2500 1250 0 10000 8750 7500 6250 5000 3750 2500 1250 0 10000 8750 7500 6250 5000 3750 2500 1250 0 10000 8750 7500 6250 5000 3750 2500 1250 0 15000 13125 11250 9375 7500 5625 3750 1875 0 15000 13125 11250 9375 7500 5625 3750 1875 0 17000 14875 12750 10625 8500 6375 4250 2125 0 17000 14875 12750 10625 8500 6375 4250 2125 0 17000 14875 12750 10625 8500 6375 4250 2125 0 17000 14875 12750 10625 8500 6375 4250 2125 0 10000 8750 7500 6250 5000 3750 2500 1250 0 10000 8750 7500 6250 5000 3750 2500 1250 0 10000 8750 7500 6250 5000 3750 2500 1250 0 10000 8750 7500 6250 5000 3750 2500 1250 0 10000 8750 7500 6250 5000 3750 2500 1250 0 10000 8750 7500 6250 5000 3750 2500 1250 0 10000 8750 7500 6250 5000 3750 2500 1250 0 10000 8750 7500 6250 5000 3750 2500 1250 0 10000 8750 7500 6250 5000 3750 2500 1250 0 10000 8750 7500 6250 5000 3750 2500 1250 0 15000 13125 11250 9375 7500 5625 3750 1875 0 15000 13125 11250 9375 7500 5625 3750 1875 0 17000 14875 12750 10625 8500 6375 4250 2125 0 17000 14875 12750 10625 8500 6375 4250 2125 0 17000 14875 12750 10625 8500 6375 4250 2125 0 17000 14875 12750 10625 8500 6375 4250 2125 0 10000 8750 7500 6250 5000 3750 2500 1250 0 10000 8750 7500 6250 5000 3750 2500 1250 0 10000 8750 7500 6250 5000 3750 2500 1250 0 10000 8750 7500 6250 5000 3750 2500 1250 0 10000 8750 7500 6250 5000 3750 2500 1250 0 10000 8750 7500 6250 5000 3750 2500 1250 0 10000 8750 7500 6250 5000 3750 2500 1250 0 10000 8750 7500 6250 5000 3750 2500 1250 0 10000 8750 7500 6250 5000 3750 2500 1250 0 10000 8750 7500 6250 5000 3750 2500 1250 0 15000 13125 11250 9375 7500 5625 3750 1875 0 15000 13125 11250 9375 7500 5625 3750 1875 0 17000 14875 12750 10625 8500 6375 4250 2125 0 17000 14875 12750 10625 8500 6375 4250 2125 0 17000 14875 12750 10625 8500 6375 4250 2125 0 17000 14875 12750 10625 8500 6375 4250 2125 0 10000 8750 7500 6250 5000 3750 2500 1250 0 10000 8750 7500 6250 5000 3750 2500 1250 0 10000 8750 7500 6250 5000 3750 2500 1250 0 10000 8750 7500 6250 5000 3750 2500 1250 0 10000 8750 7500 6250 5000 3750 2500 1250 0 10000 8750 7500 6250 5000 3750 2500 1250 0 10000 8750 7500 6250 5000 3750 2500 1250 0 10000 8750 7500 6250 5000 3750 2500 1250 0 10000 8750 7500 6250 5000 3750 2500 1250 0 10000 8750 7500 6250 5000 3750 2500 1250 0 15000 13125 11250 9375 7500 5625 3750 1875 0 15000 13125 11250 9375 7500 5625 3750 1875 0 17000 14875 12750 10625 8500 6375 4250 2125 0 17000 14875 12750 10625 8500 6375 4250 2125 0 17000 14875 12750 10625 8500 6375 4250 2125 0 17000 14875 12750 10625 8500 6375 4250 2125 0 10000 8750 7500 6250 5000 3750 2500 1250 0 10000 8750 7500 6250 5000 3750 2500 1250 0 10000 8750 7500 6250 5000 3750 2500 1250 0 10000 8750 7500 6250 5000 3750 2500 1250 0 10000 8750 7500 6250 5000 3750 2500 1250 0 10000 8750 7500 6250 5000 3750 2500 1250 0 10000 8750 7500 6250 5000 3750 2500 1250 0 10000 8750 7500 6250 5000 3750 2500 1250 0 10000 8750 7500 6250 5000 3750 2500 1250 0 10000 8750 7500 6250 5000 3750 2500 1250 0 15000 13125 11250 9375 7500 5625 3750 1875 0 15000 13125 11250 9375 7500 5625 3750 1875 0 17000 14875 12750 10625 8500 6375 4250 2125 0 17000 14875 12750 10625 8500 6375 4250 2125 0 17000 14875 12750 10625 8500 6375 4250 2125 0 17000 14875 12750 10625 8500 6375 4250 2125 0 10000 8750 7500 6250 5000 3750 2500 1250 0 10000 8750 7500 6250 5000 3750 2500 1250 0 10000 8750 7500 6250 5000 3750 2500 1250 0 10000 8750 7500 6250 5000 3750 2500 1250 0 10000 8750 7500 6250 5000 3750 2500 1250 0 10000 8750 7500 6250 5000 3750 2500 1250 0 10000 8750 7500 6250 5000 3750 2500 1250 0 10000 8750 7500 6250 5000 3750 2500 1250 0 10000 8750 7500 6250 5000 3750 2500 1250 0 10000 8750 7500 6250 5000 3750 2500 1250 0 15000 13125 11250 9375 7500 5625 3750 1875 0 15000 13125 11250 9375 7500 5625 3750 1875 0 17000 14875 12750 10625 8500 6375 4250 2125 0 17000 14875 12750 10625 8500 6375 4250 2125 0 17000 14875 12750 10625 8500 6375 4250 2125 0 17000 14875 12750 10625 8500 6375 4250 2125 0 10000 8750 7500 6250 5000 3750 2500 1250 0 10000 8750 7500 6250 5000 3750 2500 1250 0 10000 8750 7500 6250 5000 3750 2500 1250 0 10000 8750 7500 6250 5000 3750 2500 1250 0 10000 8750 7500 6250 5000 3750 2500 1250 0 10000 8750 7500 6250 5000 3750 2500 1250 0 10000 8750 7500 6250 5000 3750 2500 1250 0 10000 8750 7500 6250 5000 3750 2500 1250 0 10000 8750 7500 6250 5000 3750 2500 1250 0 10000 8750 7500 6250 5000 3750 2500 1250 0 15000 13125 11250 9375 7500 5625 3750 1875 0 15000 13125 11250 9375 7500 5625 3750 1875 0 17000 14875 12750 10625 8500 6375 4250 2125 0 17000 14875 12750 10625 8500 6375 4250 2125 0 17000 14875 12750 10625 8500 6375 4250 2125 0 17000 14875 12750 10625 8500 6375 4250 2125 0 10000 8750 7500 6250 5000 3750 2500 1250 0 10000 8750 7500 6250 5000 3750 2500 1250 0 10000 8750 7500 6250 5000 3750 2500 1250 0 10000 8750 7500 6250 5000 3750 2500 1250 0 10000 8750 7500 6250 5000 3750 2500 1250 0 10000 8750 7500 6250 5000 3750 2500 1250 0 10000 8750 7500 6250 5000 3750 2500 1250 0 10000 8750 7500 6250 5000 3750 2500 1250 0 10000 8750 7500 6250 5000 3750 2500 1250 0 10000 8750 7500 6250 5000 3750 2500 1250 0 15000 13125 11250 9375 7500 5625 3750 1875 0 15000 13125 11250 9375 7500 5625 3750 1875 0 17000 14875 12750 10625 8500 6375 4250 2125 0 17000 14875 12750 10625 8500 6375 4250 2125 0 17000 14875 12750 10625 8500 6375 4250 2125 0 17000 14875 12750 10625 8500 6375 4250 2125 0 10000 8750 7500 6250 5000 3750 2500 1250 0 10000 8750 7500 6250 5000 3750 2500 1250 0 10000 8750 7500 6250 5000 3750 2500 1250 0 10000 8750 7500 6250 5000 3750 2500 1250 0 10000 8750 7500 6250 5000 3750 2500 1250 0 10000 8750 7500 6250 5000 3750 2500 1250 0 10000 8750 7500 6250 5000 3750 2500 1250 0 10000 8750 7500 6250 5000 3750 2500 1250 0 10000 8750 7500 6250 5000 3750 2500 1250 0 10000 8750 7500 6250 5000 3750 2500 1250 0 15000 13125 11250 9375 7500 5625 3750 1875 0 15000 13125 11250 9375 7500 5625 3750 1875 0 15000 13125 11250 9375 7500 5625 3750 1875 0 15000 13125 11250 9375 7500 5625 3750 1875 0 15000 13125 11250 9375 7500 5625 3750 1875 0 15000 13125 11250 9375 7500 5625 3750 1875 0 10000 8750 7500 6250 5000 3750 2500 1250 0 10000 8750 7500 6250 5000 3750 2500 1250 0 10000 8750 7500 6250 5000 3750 2500 1250 0 10000 8750 7500 6250 5000 3750 2500 1250 0 10000 8750 7500 6250 5000 3750 2500 1250 0 10000 8750 7500 6250 5000 3750 2500 1250 0 10000 8750 7500 6250 5000 3750 2500 1250 0 10000 8750 7500 6250 5000 3750 2500 1250 0 10000 8750 7500 6250 5000 3750 2500 1250 0 10000 8750 7500 6250 5000 3750 2500 1250 0 15000 13125 11250 9375 7500 5625 3750 1875 0 15000 13125 11250 9375 7500 5625 3750 1875 0 15000 13125 11250 9375 7500 5625 3750 1875 0 15000 13125 11250 9375 7500 5625 3750 1875 0 15000 13125 11250 9375 7500 5625 3750 1875 0 15000 13125 11250 9375 7500 5625 3750 1875 0 10000 8750 7500 6250 5000 3750 2500 1250 0 10000 8750 7500 6250 5000 3750 2500 1250 0 10000 8750 7500 6250 5000 3750 2500 1250 0 10000 8750 7500 6250 5000 3750 2500 1250 0 10000 8750 7500 6250 5000 3750 2500 1250 0 10000 8750 7500 6250 5000 3750 2500 1250 0 10000 8750 7500 6250 5000 3750 2500 1250 0 10000 8750 7500 6250 5000 3750 2500 1250 0 10000 8750 7500 6250 5000 3750 2500 1250 0 10000 8750 7500 6250 5000 3750 2500 1250 0 15000 13125 11250 9375 7500 5625 3750 1875 0 15000 13125 11250 9375 7500 5625 3750 1875 0 15000 13125 11250 9375 7500 5625 3750 1875 0 15000 13125 11250 9375 7500 5625 3750 1875 0 15000 13125 11250 9375 7500 5625 3750 1875 0 15000 13125 11250 9375 7500 5625 3750 1875 0 10000 8750 7500 6250 5000 3750 2500 1250 0 10000 8750 7500 6250 5000 3750 2500 1250 0 10000 8750 7500 6250 5000 3750 2500 1250 0 10000 8750 7500 6250 5000 3750 2500 1250 0 10000 8750 7500 6250 5000 3750 2500 1250 0 10000 8750 7500 6250 5000 3750 2500 1250 0 10000 8750 7500 6250 5000 3750 2500 1250 0 10000 8750 7500 6250 5000 3750 2500 1250 0 10000 8750 7500 6250 5000 3750 2500 1250 0 10000 8750 7500 6250 5000 3750 2500 1250 0 15000 13125 11250 9375 7500 5625 3750 1875 0 15000 13125 11250 9375 7500 5625 3750 1875 0 15000 13125 11250 9375 7500 5625 3750 1875 0 15000 13125 11250 9375 7500 5625 3750 1875 0 15000 13125 11250 9375 7500 5625 3750 1875 0 15000 13125 11250 9375 7500 5625 3750 1875 0 10000 8750 7500 6250 5000 3750 2500 1250 0 10000 8750 7500 6250 5000 3750 2500 1250 0 10000 8750 7500 6250 5000 3750 2500 1250 0 10000 8750 7500 6250 5000 3750 2500 1250 0 10000 8750 7500 6250 5000 3750 2500 1250 0 10000 8750 7500 6250 5000 3750 2500 1250 0 10000 8750 7500 6250 5000 3750 2500 1250 0 10000 8750 7500 6250 5000 3750 2500 1250 0 10000 8750 7500 6250 5000 3750 2500 1250 0 10000 8750 7500 6250 5000 3750 2500 1250 0 15000 13125 11250 9375 7500 5625 3750 1875 0 15000 13125 11250 9375 7500 5625 3750 1875 0 15000 13125 11250 9375 7500 5625 3750 1875 0 15000 13125 11250 9375 7500 5625 3750 1875 0 15000 13125 11250 9375 7500 5625 3750 1875 0 15000 13125 11250 9375 7500 5625 3750 1875 0 10000 8750 7500 6250 5000 3750 2500 1250 0 10000 8750 7500 6250 5000 3750 2500 1250 0 10000 8750 7500 6250 5000 3750 2500 1250 0 10000 8750 7500 6250 5000 3750 2500 1250 0 10000 8750 7500 6250 5000 3750 2500 1250 0 10000 8750 7500 6250 5000 3750 2500 1250 0 10000 8750 7500 6250 5000 3750 2500 1250 0 10000 8750 7500 6250 5000 3750 2500 1250 0 10000 8750 7500 6250 5000 3750 2500 1250 0 10000 8750 7500 6250 5000 3750 2500 1250 0 15000 13125 11250 9375 7500 5625 3750 1875 0 15000 13125 11250 9375 7500 5625 3750 1875 0 15000 13125 11250 9375 7500 5625 3750 1875 0 15000 13125 11250 9375 7500 5625 3750 1875 0 15000 13125 11250 9375 7500 5625 3750 1875 0 15000 13125 11250 9375 7500 5625 3750 1875 0 10000 8750 7500 6250 5000 3750 2500 1250 0 10000 8750 7500 6250 5000 3750 2500 1250 0 10000 8750 7500 6250 5000 3750 2500 1250 0 10000 8750 7500 6250 5000 3750 2500 1250 0 10000 8750 7500 6250 5000 3750 2500 1250 0 10000 8750 7500 6250 5000 3750 2500 1250 0 10000 8750 7500 6250 5000 3750 2500 1250 0 10000 8750 7500 6250 5000 3750 2500 1250 0 10000 8750 7500 6250 5000 3750 2500 1250 0 10000 8750 7500 6250 5000 3750 2500 1250 0 15000 13125 11250 9375 7500 5625 3750 1875 0 15000 13125 11250 9375 7500 5625 3750 1875 0 15000 13125 11250 9375 7500 5625 3750 1875 0 15000 13125 11250 9375 7500 5625 3750 1875 0 15000 13125 11250 9375 7500 5625 3750 1875 0 15000 13125 11250 9375 7500 5625 3750 1875 0 
</DataArray>
<DataArray Name="Depth wrt reference" format="ascii" type="Float64">