<?xml version="1.0"?>
<VTKFile byte_order="LittleEndian" type="UnstructuredGrid" version="0.1">
<UnstructuredGrid>
<Piece NumberOfCells="504" NumberOfPoints="551">
<PointData>
<DataArray Name="Depth" format="ascii" type="Float64">
350000 350000 350000 350000 350000 350000 350000 350000 350000 350000 350000 350000 350000 350000 350000 350000 350000 350000 350000 350000 350000 350000 350000 350000 350000 350000 350000 350000 350000 330556 330556 330556 330556 330556 330556 330556 330556 330556 330556 330556 330556 330556 330556 330556 330556 330556 330556 330556 330556 330556 330556 330556 330556 330556 330556 330556 330556 330556 311111 311111 311111 311111 311111 311111 311111 311111 311111 311111 311111 311111 311111 311111 311111 311111 311111 311111 311111 311111 311111 311111 311111 311111 311111 311111 311111 311111 311111 291667 291667 291667 291667 291667 291667 291667 291667 291667 291667 291667 291667 291667 291667 291667 291667 291667 291667 291667 291667 291667 291667 291667 291667 291667 291667 291667 291667 291667 272222 272222 272222 272222 272222 272222 272222 272222 272222 272222 272222 272222 272222 272222 272222 272222 272222 272222 272222 272222 272222 272222 272222 272222 272222 272222 272222 272222 272222 252778 252778 252778 252778 252778 252778 252778 252778 252778 252778 252778 252778 252778 252778 252778 252778 252778 252778 252778 252778 252778 252778 252778 252778 252778 252778 252778 252778 252778 233333 233333 233333 233333 233333 233333 233333 233333 233333 233333 233333 233333 233333 233333 233333 233333 233333 233333 233333 233333 233333 233333 233333 233333 233333 233333 233333 233333 233333 213889 213889 213889 213889 213889 213889 213889 213889 213889 213889 213889 213889 213889 213889 213889 213889 213889 213889 213889 213889 213889 213889 213889 213889 213889 213889 213889 213889 213889 194444 194444 194444 194444 194444 194444 194444 194444 194444 194444 194444 194444 194444 194444 194444 194444 194444 194444 194444 194444 194444 194444 194444 194444 194444 194444 194444 194444 194444 175000 175000 175000 175000 175000 175000 175000 175000 175000 175000 175000 175000 175000 175000 175000 175000 175000 175000 175000 175000 175000 175000 175000 175000 175000 175000 175000 175000 175000 155556 155556 155556 155556 155556 155556 155556 155556 155556 155556 155556 155556 155556 155556 155556 155556 155556 155556 155556 155556 155556 155556 155556 155556 155556 155556 155556 155556 155556 136111 136111 136111 136111 136111 136111 136111 136111 136111 136111 136111 136111 136111 136111 136111 136111 136111 136111 136111 136111 136111 136111 136111 136111 136111 136111 136111 136111 136111 116667 116667 116667 116667 116667 116667 116667 116667 116667 116667 116667 116667 116667 116667 116667 116667 116667 116667 116667 116667 116667 116667 116667 116667 116667 116667 116667 116667 116667 97222.2 97222.2 97222.2 97222.2 97222.2 97222.2 97222.2 97222.2 97222.2 97222.2 97222.2 97222.2 97222.2 97222.2 97222.2 97222.2 97222.2 97222.2 97222.2 97222.2 97222.2 97222.2 97222.2 97222.2 97222.2 97222.2 97222.2 97222.2 97222.2 77777.8 77777.8 77777.8 77777.8 77777.8 77777.8 77777.8 77777.8 77777.8 77777.8 77777.8 77777.8 77777.8 77777.8 77777.8 77777.8 77777.8 77777.8 77777.8 77777.8 77777.8 77777.8 77777.8 77777.8 77777.8 77777.8 77777.8 77777.8 77777.8 58333.3 58333.3 58333.3 58333.3 58333.3 58333.3 58333.3 58333.3 58333.3 58333.3 58333.3 58333.3 58333.3 58333.3 58333.3 58333.3 58333.3 58333.3 58333.3 58333.3 58333.3 58333.3 58333.3 58333.3 58333.3 58333.3 58333.3 58333.3 58333.3 38888.9 38888.9 38888.9 38888.9 38888.9 38888.9 38888.9 38888.9 38888.9 38888.9 38888.9 38888.9 38888.9 38888.9 38888.9 38888.9 38888.9 38888.9 38888.9 38888.9 38888.9 38888.9 38888.9 38888.9 38888.9 38888.9 38888.9 38888.9 38888.9 19444.4 19444.4 19444.4 19444.4 19444.4 19444.4 19444.4 19444.4 19444.4 19444.4 19444.4 19444.4 19444.4 19444.4 19444.4 19444.4 19444.4 19444.4 19444.4 19444.4 19444.4 19444.4 19444.4 19444.4 19444.4 19444.4 19444.4 19444.4 19444.4 0 0 0 0 0 0 0 0 0 0 0 0 0 0 0 0 0 0 0 0 0 0 0 0 0 0 0 0 0 
</DataArray>
<DataArray Name="Temperature" format="ascii" type="Float64">
1764.74 1764.74 1764.74 1764.74 1764.74 1764.74 1764.74 1764.74 1764.74 1764.74 1764.74 1764.74 1764.74 1764.74 1764.74 1764.74 1764.74 1764.74 1764.74 1764.74 1764.74 1764.74 1764.74 1764.74 1764.74 1764.74 1764.74 1764.74 1764.74 1755.16 1755.16 1755.16 1755.16 1755.16 1755.16 1755.16 1755.16 1755.16 1755.16 1755.16 1755.16 1755.16 1755.16 1755.16 1755.16 1755.16 1755.16 1755.16 1755.16 1755.16 1755.16 1755.16 1755.16 1755.16 1755.16 1755.16 1755.16 1755.16 1745.63 1745.63 1745.63 1745.63 1745.63 1745.63 1745.63 1745.63 1745.63 1745.63 1745.63 1745.63 1745.63 1745.63 1745.63 1745.63 1745.63 1745.63 1745.63 1745.63 1745.63 1745.63 1745.63 1745.63 1745.63 1745.63 1745.63 1745.63 1745.63 1736.15 1736.15 1736.15 1736.15 1736.15 1736.15 1736.15 1736.15 1736.15 1736.15 1736.15 1736.15 1736.15 1736.15 1736.15 1736.15 1736.15 1736.15 1736.15 1736.15 1736.15 1736.15 1736.15 1736.15 1736.15 1736.15 1736.15 1736.15 1736.15 1726.72 1726.72 1726.72 1726.72 1726.72 1726.72 1726.72 1726.72 1726.72 1726.72 1726.72 1726.72 1726.72 1726.72 1726.72 1726.72 1726.72 1726.72 1726.72 1726.72 1726.72 1726.72 1726.72 1726.72 1726.72 1726.72 1726.72 1726.72 1726.72 1717.35 1717.35 1717.35 1717.35 1717.35 1717.35 1717.35 1717.35 1717.35 1717.35 1717.35 1717.35 1717.35 1717.35 1717.35 1717.35 1717.35 1717.35 1717.35 1717.35 1717.35 1717.35 1717.35 1717.35 1717.35 1717.35 1717.35 1717.35 1717.35 1708.02 1708.02 1708.02 1708.02 1708.02 1708.02 1708.02 1708.02 1708.02 1708.02 1708.02 1708.02 1708.02 1708.02 1708.02 1708.02 1708.02 1708.02 1708.02 1708.02 1708.02 1708.02 1708.02 1708.02 1708.02 1708.02 1708.02 1708.02 1708.02 1698.75 1698.75 1698.75 1698.75 1698.75 1698.75 1698.75 1698.75 1698.75 1698.75 1698.75 1698.75 1698.75 1698.75 1698.75 1698.75 1698.75 1698.75 1698.75 1698.75 1698.75 1698.75 1698.75 1698.75 1698.75 1698.75 1698.75 1698.75 1698.75 1689.53 1689.53 1689.53 1689.53 1689.53 1689.53 1689.53 1689.53 1689.53 1689.53 1689.53 1689.53 1689.53 1689.53 1689.53 1689.53 1689.53 1689.53 1689.53 1689.53 1689.53 1689.53 1689.53 1689.53 1689.53 1689.53 1689.53 1689.53 1689.53 1680.35 1680.35 1680.35 1680.35 1680.35 1680.35 1680.35 1680.35 1680.35 1680.35 1680.35 1680.35 1680.35 1680.35 1680.35 1680.35 1680.35 1680.35 1680.35 1680.35 1680.35 1680.35 1680.35 1680.35 1680.35 1680.35 1680.35 1680.35 1680.35 1671.23 1671.23 1671.23 1671.23 1671.23 1671.23 1671.23 1671.23 1671.23 1671.23 1671.23 1671.23 1671.23 1671.23 1671.23 1671.23 1671.23 1671.23 1671.23 1671.23 1671.23 1671.23 1671.23 1671.23 1671.23 1671.23 1671.23 1671.23 1671.23 1662.15 1662.15 1662.15 1662.15 1662.15 1662.15 1662.15 1662.15 1662.15 1662.15 1662.15 1662.15 1662.15 1662.15 1662.15 1662.15 1662.15 1662.15 1662.15 1662.15 1662.15 1662.15 1662.15 1662.15 1662.15 1662.15 1662.15 1662.15 1662.15 1653.13 1653.13 1653.13 1653.13 1653.13 1653.13 1653.13 1653.13 1653.13 1653.13 1653.13 1653.13 1653.13 1653.13 1653.13 1653.13 1653.13 1653.13 1653.13 1653.13 1653.13 1653.13 1653.13 1653.13 1653.13 1653.13 1653.13 1653.13 1653.13 1644.15 1644.15 1644.15 1644.15 1644.15 1644.15 1644.15 1644.15 1644.15 1644.15 1644.15 1644.15 1644.15 1644.15 1644.15 1644.15 1644.15 1644.15 1644.15 1644.15 1644.15 1644.15 1644.15 1644.15 1644.15 1644.15 1644.15 1644.15 1644.15 1635.23 1635.23 1635.23 1635.23 1635.23 1635.23 1635.23 1635.23 1635.23 1635.23 1635.23 1635.23 1635.23 1635.23 1635.23 1635.23 1635.23 1635.23 1635.23 1635.23 1635.23 1635.23 1635.23 1635.23 1635.23 1635.23 1635.23 1635.23 1635.23 1626.35 1626.35 1626.35 1626.35 1626.35 1626.35 1626.35 1626.35 1626.35 1626.35 1626.35 1626.35 1626.35 1626.35 1626.35 1626.35 1626.35 1626.35 1626.35 1626.35 1626.35 1626.35 1626.35 1626.35 1626.35 1626.35 1626.35 1626.35 1626.35 1617.52 1617.52 1617.52 1617.52 1617.52 1617.52 1617.52 1617.52 1617.52 1617.52 1617.52 1617.52 1617.52 1617.52 1617.52 1617.52 1617.52 1617.52 1617.52 1617.52 1617.52 1617.52 1617.52 1617.52 1617.52 1617.52 1617.52 1617.52 1617.52 1608.73 1608.73 1608.73 1608.73 1608.73 1608.73 1608.73 1608.73 1608.73 1608.73 1608.73 1608.73 1608.73 1608.73 1608.73 1608.73 1608.73 1608.73 1608.73 1608.73 1608.73 1608.73 1608.73 1608.73 1608.73 1608.73 1608.73 1608.73 1608.73 1600 1600 1600 1600 1600 1600 1600 1600 1600 1600 1600 1600 1600 1600 1600 1600 1600 1600 1600 1600 1600 1600 1600 1600 1600 1600 1600 1600 1600 
</DataArray>
<DataArray Name="Tag" format="ascii" type="Float64">
-1 -1 -1 -1 -1 -1 -1 -1 -1 -1 -1 -1 -1 -1 -1 -1 -1 -1 -1 -1 -1 -1 -1 -1 -1 -1 -1 -1 -1 -1 -1 -1 -1 -1 -1 -1 -1 -1 -1 -1 -1 -1 -1 -1 -1 -1 -1 -1 -1 -1 -1 -1 -1 -1 -1 -1 -1 -1 -1 -1 -1 -1 -1 -1 -1 -1 -1 -1 -1 -1 -1 -1 -1 -1 -1 -1 -1 -1 -1 -1 -1 -1 -1 -1 -1 -1 -1 -1 -1 -1 -1 -1 -1 -1 -1 -1 -1 -1 -1 -1 -1 -1 -1 -1 -1 -1 -1 -1 -1 -1 -1 -1 -1 -1 -1 -1 -1 -1 -1 -1 -1 -1 -1 -1 -1 -1 -1 -1 -1 -1 -1 -1 -1 -1 -1 -1 -1 -1 -1 -1 -1 -1 -1 -1 -1 -1 -1 -1 -1 -1 -1 -1 -1 -1 -1 -1 -1 -1 -1 -1 -1 -1 -1 -1 -1 -1 -1 -1 -1 -1 -1 -1 -1 -1 -1 -1 -1 -1 -1 -1 -1 -1 -1 -1 -1 -1 -1 -1 -1 -1 -1 -1 -1 -1 -1 -1 -1 -1 -1 -1 -1 -1 -1 -1 -1 -1 -1 -1 -1 -1 -1 -1 -1 -1 -1 -1 -1 -1 -1 -1 -1 -1 -1 -1 -1 -1 -1 -1 -1 -1 -1 -1 0 0 0 0 0 0 0 0 0 0 0 0 0 0 0 0 0 0 0 0 0 0 0 0 0 0 0 0 0 0 0 0 0 0 0 0 0 0 0 0 0 0 0 0 0 0 0 0 0 0 0 0 0 0 0 0 0 0 0 0 0 0 0 0 0 0 0 0 0 0 0 0 0 0 0 0 0 0 0 0 0 0 0 0 0 0 0 0 0 0 0 0 0 0 0 0 0 0 0 0 0 0 0 0 0 0 0 0 0 0 0 0 0 0 0 0 0 0 0 0 0 0 0 0 0 0 0 0 0 0 0 0 0 0 0 0 0 0 0 0 0 0 0 0 0 0 0 0 0 0 0 0 0 0 0 0 0 0 0 0 0 0 0 0 0 0 0 0 0 0 0 0 0 0 0 0 0 0 0 0 0 0 0 0 0 0 0 0 0 0 0 0 0 0 0 0 0 0 0 0 0 0 0 0 0 0 0 0 0 0 0 0 0 0 0 0 0 0 0 0 0 0 0 0 0 0 0 0 0 0 0 0 0 0 0 0 0 0 0 0 0 0 0 0 0 0 0 0 0 0 0 0 0 0 0 0 0 0 0 0 0 0 0 0 0 0 0 0 0 0 0 0 0 0 0 0 0 0 0 0 0 0 0 0 0 0 0 0 0 0 0 0 0 0 0 0 0 0 0 0 0 0 0 0 0 0 0 0 0 0 0 0 0 0 0 0 0 0 0 
</DataArray>
<DataArray Name="Composition 0" format="ascii" type="Float64">
0 0 0 0 0 0 0 0 0 0 0 0 0 0 0 0 0 0 0 0 0 0 0 0 0 0 0 0 0 0 0 0 0 0 0 0 0 0 0 0 0 0 0 0 0 0 0 0 0 0 0 0 0 0 0 0 0 0 0 0 0 0 0 0 0 0 0 0 0 0 0 0 0 0 0 0 0 0 0 0 0 0 0 0 0 0 0 0 0 0 0 0 0 0 0 0 0 0 0 0 0 0 0 0 0 0 0 0 0 0 0 0 0 0 0 0 0 0 0 0 0 0 0 0 0 0 0 0 0 0 0 0 0 0 0 0 0 0 0 0 0 0 0 0 0 0 0 0 0 0 0 0 0 0 0 0 0 0 0 0 0 0 0 0 0 0 0 0 0 0 0 0 0 0 0 0 0 0 0 0 0 0 0 0 0 0 0 0 0 0 0 0 0 0 0 0 0 0 0 0 0 0 0 0 0 0 0 0 0 0 0 0 0 0 0 0 0 0 0 0 0 0 0 0 0 0 0 0 0 0 0 0 0 0 0 0 0 0 0 0 0 0 0 0 0 0 0 0 0 0 0 0 0 0 0 0 0 0 0 0 0 0 0 0 0 0 0 0 0 0 0 0 0 0 0 0 0 0 0 0 0 0 0 0 0 0 0 0 0 0 0 0 0 0 0 0 0 0 0 0 0 0 0 0 0 0 0 0 0 0 0 0 0 0 0 0 0 0 0 0 0 0 0 0 0 0 0 0 0 0 0 0 0 0 0 0 0 0 0 0 0 0 0 0 0 0 0 0 0 0 0 0 0 0 0 0 0 0 0 0 0 0 0 0 0 0 0 0 0 0 0 0 0 0 0 0 0 0 0 0 0 0 0 0 0 0 0 0 0 0 0 0 0 0 0 0 0 0 0 0 0 0 0 0 0 0 0 0 0 0 0 0 0 0 0 0 0 0 0 0 0 0 0 0 0 0 0 0 0 0 0 0 0 0 0 0 0 0 0 0 0 0 0 0 0 0 0 0 0 0 0 0 0 0 0 0 0 0 0 0 0 0 0 0 0 0 0 0 0 0 0 0 0 0 0 0 0 0 0 0 0 0 0 0 0 0 0 0 0 0 0 0 0 5.18235 8.947 9.50264 5.02332 6.32102 7.33689 6.79908 6.20109 5.11584 7.65834 5.65097 7.80729 5.83915 7.10537 8.42344 6.3695 5.05 6.09933 5.15978 9.67436 8.91046 7.58797 5.08231 6.494 7.7036 9.29942 5.92557 5.41773 5.22136 7.21904 5.09659 5.33516 9.05886 8.18145 8.86425 8.52841 6.19105 5.22209 6.40608 9.32545 5.36562 8.30166 5.93689 7.61143 9.5194 7.37576 9.23511 9.1939 5.6964 7.70152 7.33543 6.09341 7.20414 7.40139 6.66642 5.04456 7.52732 8.36574 
</DataArray>
<DataArray Name="Composition 1" format="ascii" type="Float64">
0 0 0 0 0 0 0 0 0 0 0 0 0 0 0 0 0 0 0 0 0 0 0 0 0 0 0 0 0 0 0 0 0 0 0 0 0 0 0 0 0 0 0 0 0 0 0 0 0 0 0 0 0 0 0 0 0 0 0 0 0 0 0 0 0 0 0 0 0 0 0 0 0 0 0 0 0 0 0 0 0 0 0 0 0 0 0 0 0 0 0 0 0 0 0 0 0 0 0 0 0 0 0 0 0 0 0 0 0 0 0 0 0 0 0 0 0 0 0 0 0 0 0 0 0 0 0 0 0 0 0 0 0 0 0 0 0 0 0 0 0 0 0 0 0 0 0 0 0 0 0 0 0 0 0 0 0 0 0 0 0 0 0 0 0 0 0 0 0 0 0 0 0 0 0 0 0 0 0 0 0 0 0 0 0 0 0 0 0 0 0 0 0 0 0 0 0 0 0 0 0 0 0 0 0 0 0 0 0 0 0 0 0 0 0 0 0 0 0 0 0 0 0 0 0 0 0 0 0 0 0 0 0.997185 0.932557 0.128124 0.999041 0.236089 0.396581 0.387911 0.669746 0.935539 0.846311 0.313274 0.524548 0.443453 0.229577 0.534414 0.913962 0.457205 0.430699 0.939128 0.778389 0.715971 0.802758 0.0928008 0.518153 0.86502 0.829147 0.829603 0.27305 0.0592432 0.670528 0.593066 0.671654 0.411788 0.197551 0.28963 0.14212 0.783314 0.412539 0.0341713 0.62403 0.660636 0.298495 0.446135 0.222125 0.0733642 0.469239 0.0961723 0.90337 0.11949 0.524799 0.083623 0.916861 0.910448 0.29893 0.584389 0.565912 0.613938 0.956536 0.260979 0.231015 0.533448 0.949938 0.49306 0.540601 0.765485 0.0453457 0.139966 0.792404 0.0298014 0.883125 0.540788 0.44798 0.892136 0.377584 0.538425 0.652299 0.361261 0.571009 0.637836 0.126315 0.690205 0.647749 0.353939 0.763233 0.356532 0.752788 0.881342 0.0116692 0.498109 0.073792 0.786951 0.0640673 0.35531 0.941837 0.379803 0.76292 0.771595 0.301361 0.772739 0.15293 0.578634 0.009008 0.709043 0.470641 0.764593 0.467393 0.269001 0.831693 0.551325 0.0700815 0.472475 0.742765 0.191956 0.464312 0.230363 0.508248 0.208568 0.0493042 0.518862 0.172278 0.396313 0.107365 0.50981 0.102135 0.288718 0.231758 0.967668 0.278319 0.233623 0.0915564 0.570067 0.417927 0.367843 0.812995 0.28976 0.717392 0.612948 0.42691 0.751873 0.427813 0.428382 0.361904 0.153338 0.93719 0.91641 0.781958 0.616329 0.0359994 0.654324 0.12977 0.294359 0.360815 0.274645 0.073969 0.152137 0.161619 0.938712 0.371134 0.0500181 0.740956 0.29868 0.204358 0.981757 0.893021 0.759349 0.651121 0.0396835 0.813876 0.762573 0.455282 0.531826 0.109336 0.146033 0.508789 0.21565 0.916444 0.462153 0.132267 0.764242 0.212734 0.0742584 0.0954192 0.162206 0.356464 0.0953078 0.143263 0.931013 0.576584 0.839645 0.623292 0.324518 0.728012 0.522737 0.736811 0.165406 0.687058 0.426811 0.728557 0.756335 0.397611 0.9252 0.20351 0.00800271 0.926351 0.294512 0.166952 0.0241016 0.452002 0.808339 0.368377 0.609207 0.0348477 0.354577 0.07852 0.693185 0.0127127 0.459545 0.961317 0.334185 0.472083 0.105391 0.503076 0.88569 0.534377 0.281477 0.354585 0.89628 0.241489 0.0238841 0.965727 0.429968 0.346289 0.577068 0.126526 0.950043 0.313611 0.952831 0.218393 0.2487 0.863802 0.235268 0.8151 0.543897 0.19126 0.58884 0.0481368 0.015873 0.049711 0.399415 0.576904 0.867517 0.786162 0.254703 0.0822549 0.157756 0.209493 0.417383 0.34769 0.699884 0.697509 0.0747239 0 0 0 0 0 0 0 0 0 0 0 0 0 0 0 0 0 0 0 0 0 0 0 0 0 0 0 0 0 0 0 0 0 0 0 0 0 0 0 0 0 0 0 0 0 0 0 0 0 0 0 0 0 0 0 0 0 0 
</DataArray>
</PointData>
<CellData>
</CellData>
<Points>
<DataArray NumberOfComponents="3" format="ascii" type="Float64">
0 0 0 19642.9 0 0 39285.7 0 0 58928.6 0 0 78571.4 0 0 98214.3 0 0 117857 0 0 137500 0 0 157143 0 0 176786 0 0 196429 0 0 216071 0 0 235714 0 0 255357 0 0 275000 0 0 294643 0 0 314286 0 0 333929 0 0 353571 0 0 373214 0 0 392857 0 0 412500 0 0 432143 0 0 451786 0 0 471429 0 0 491071 0 0 510714 0 0 530357 0 0 550000 0 0 0 19444.4 0 19642.9 19444.4 0 39285.7 19444.4 0 58928.6 19444.4 0 78571.4 19444.4 0 98214.3 19444.4 0 117857 19444.4 0 137500 19444.4 0 157143 19444.4 0 176786 19444.4 0 196429 19444.4 0 216071 19444.4 0 235714 19444.4 0 255357 19444.4 0 275000 19444.4 0 294643 19444.4 0 314286 19444.4 0 333929 19444.4 0 353571 19444.4 0 373214 19444.4 0 392857 19444.4 0 412500 19444.4 0 432143 19444.4 0 451786 19444.4 0 471429 19444.4 0 491071 19444.4 0 510714 19444.4 0 530357 19444.4 0 550000 19444.4 0 0 38888.9 0 19642.9 38888.9 0 39285.7 38888.9 0 58928.6 38888.9 0 78571.4 38888.9 0 98214.3 38888.9 0 117857 38888.9 0 137500 38888.9 0 157143 38888.9 0 176786 38888.9 0 196429 38888.9 0 216071 38888.9 0 235714 38888.9 0 255357 38888.9 0 275000 38888.9 0 294643 38888.9 0 314286 38888.9 0 333929 38888.9 0 353571 38888.9 0 373214 38888.9 0 392857 38888.9 0 412500 38888.9 0 432143 38888.9 0 451786 38888.9 0 471429 38888.9 0 491071 38888.9 0 510714 38888.9 0 530357 38888.9 0 550000 38888.9 0 0 58333.3 0 19642.9 58333.3 0 39285.7 58333.3 0 58928.6 58333.3 0 78571.4 58333.3 0 98214.3 58333.3 0 117857 58333.3 0 137500 58333.3 0 157143 58333.3 0 176786 58333.3 0 196429 58333.3 0 216071 58333.3 0 235714 58333.3 0 255357 58333.3 0 275000 58333.3 0 294643 58333.3 0 314286 58333.3 0 333929 58333.3 0 353571 58333.3 0 373214 58333.3 0 392857 58333.3 0 412500 58333.3 0 432143 58333.3 0 451786 58333.3 0 471429 58333.3 0 491071 58333.3 0 510714 58333.3 0 530357 58333.3 0 550000 58333.3 0 0 77777.8 0 19642.9 77777.8 0 39285.7 77777.8 0 58928.6 77777.8 0 78571.4 77777.8 0 98214.3 77777.8 0 117857 77777.8 0 137500 77777.8 0 157143 77777.8 0 176786 77777.8 0 196429 77777.8 0 216071 77777.8 0 235714 77777.8 0 255357 77777.8 0 275000 77777.8 0 294643 77777.8 0 314286 77777.8 0 333929 77777.8 0 353571 77777.8 0 373214 77777.8 0 392857 77777.8 0 412500 77777.8 0 432143 77777.8 0 451786 77777.8 0 471429 77777.8 0 491071 77777.8 0 510714 77777.8 0 530357 77777.8 0 550000 77777.8 0 0 97222.2 0 19642.9 97222.2 0 39285.7 97222.2 0 58928.6 97222.2 0 78571.4 97222.2 0 98214.3 97222.2 0 117857 97222.2 0 137500 97222.2 0 157143 97222.2 0 176786 97222.2 0 196429 97222.2 0 216071 97222.2 0 235714 97222.2 0 255357 97222.2 0 275000 97222.2 0 294643 97222.2 0 314286 97222.2 0 333929 97222.2 0 353571 97222.2 0 373214 97222.2 0 392857 97222.2 0 412500 97222.2 0 432143 97222.2 0 451786 97222.2 0 471429 97222.2 0 491071 97222.2 0 510714 97222.2 0 530357 97222.2 0 550000 97222.2 0 0 116667 0 19642.9 116667 0 39285.7 116667 0 58928.6 116667 0 78571.4 116667 0 98214.3 116667 0 117857 116667 0 137500 116667 0 157143 116667 0 176786 116667 0 196429 116667 0 216071 116667 0 235714 116667 0 255357 116667 0 275000 116667 0 294643 116667 0 314286 116667 0 333929 116667 0 353571 116667 0 373214 116667 0 392857 116667 0 412500 116667 0 432143 116667 0 451786 116667 0 471429 116667 0 491071 116667 0 510714 116667 0 530357 116667 0 550000 116667 0 0 136111 0 19642.9 136111 0 39285.7 136111 0 58928.6 136111 0 78571.4 136111 0 98214.3 136111 0 117857 136111 0 137500 136111 0 157143 136111 0 176786 136111 0 196429 136111 0 216071 136111 0 235714 136111 0 255357 136111 0 275000 136111 0 294643 136111 0 314286 136111 0 333929 136111 0 353571 136111 0 373214 136111 0 392857 136111 0 412500 136111 0 432143 136111 0 451786 136111 0 471429 136111 0 491071 136111 0 510714 136111 0 530357 136111 0 550000 136111 0 0 155556 0 19642.9 155556 0 39285.7 155556 0 58928.6 155556 0 78571.4 155556 0 98214.3 155556 0 117857 155556 0 137500 155556 0 157143 155556 0 176786 155556 0 196429 155556 0 216071 155556 0 235714 155556 0 255357 155556 0 275000 155556 0 294643 155556 0 314286 155556 0 333929 155556 0 353571 155556 0 373214 155556 0 392857 155556 0 412500 155556 0 432143 155556 0 451786 155556 0 471429 155556 0 491071 155556 0 510714 155556 0 530357 155556 0 550000 155556 0 0 175000 0 19642.9 175000 0 39285.7 175000 0 58928.6 175000 0 78571.4 175000 0 98214.3 175000 0 117857 175000 0 137500 175000 0 157143 175000 0 176786 175000 0 196429 175000 0 216071 175000 0 235714 175000 0 255357 175000 0 275000 175000 0 294643 175000 0 314286 175000 0 333929 175000 0 353571 175000 0 373214 175000 0 392857 175000 0 412500 175000 0 432143 175000 0 451786 175000 0 471429 175000 0 491071 175000 0 510714 175000 0 530357 175000 0 550000 175000 0 0 194444 0 19642.9 194444 0 39285.7 194444 0 58928.6 194444 0 78571.4 194444 0 98214.3 194444 0 117857 194444 0 137500 194444 0 157143 194444 0 176786 194444 0 196429 194444 0 216071 194444 0 235714 194444 0 255357 194444 0 275000 194444 0 294643 194444 0 314286 194444 0 333929 194444 0 353571 194444 0 373214 194444 0 392857 194444 0 412500 194444 0 432143 194444 0 451786 194444 0 471429 194444 0 491071 194444 0 510714 194444 0 530357 194444 0 550000 194444 0 0 213889 0 19642.9 213889 0 39285.7 213889 0 58928.6 213889 0 78571.4 213889 0 98214.3 213889 0 117857 213889 0 137500 213889 0 157143 213889 0 176786 213889 0 196429 213889 0 216071 213889 0 235714 213889 0 255357 213889 0 275000 213889 0 294643 213889 0 314286 213889 0 333929 213889 0 353571 213889 0 373214 213889 0 392857 213889 0 412500 213889 0 432143 213889 0 451786 213889 0 471429 213889 0 491071 213889 0 510714 213889 0 530357 213889 0 550000 213889 0 0 233333 0 19642.9 233333 0 39285.7 233333 0 58928.6 233333 0 78571.4 233333 0 98214.3 233333 0 117857 233333 0 137500 233333 0 157143 233333 0 176786 233333 0 196429 233333 0 216071 233333 0 235714 233333 0 255357 233333 0 275000 233333 0 294643 233333 0 314286 233333 0 333929 233333 0 353571 233333 0 373214 233333 0 392857 233333 0 412500 233333 0 432143 233333 0 451786 233333 0 471429 233333 0 491071 233333 0 510714 233333 0 530357 233333 0 550000 233333 0 0 252778 0 19642.9 252778 0 39285.7 252778 0 58928.6 252778 0 78571.4 252778 0 98214.3 252778 0 117857 252778 0 137500 252778 0 157143 252778 0 176786 252778 0 196429 252778 0 216071 252778 0 235714 252778 0 255357 252778 0 275000 252778 0 294643 252778 0 314286 252778 0 333929 252778 0 353571 252778 0 373214 252778 0 392857 252778 0 412500 252778 0 432143 252778 0 451786 252778 0 471429 252778 0 491071 252778 0 510714 252778 0 530357 252778 0 550000 252778 0 0 272222 0 19642.9 272222 0 39285.7 272222 0 58928.6 272222 0 78571.4 272222 0 98214.3 272222 0 117857 272222 0 137500 272222 0 157143 272222 0 176786 272222 0 196429 272222 0 216071 272222 0 235714 272222 0 255357 272222 0 275000 272222 0 294643 272222 0 314286 272222 0 333929 272222 0 353571 272222 0 373214 272222 0 392857 272222 0 412500 272222 0 432143 272222 0 451786 272222 0 471429 272222 0 491071 272222 0 510714 272222 0 530357 272222 0 550000 272222 0 0 291667 0 19642.9 291667 0 39285.7 291667 0 58928.6 291667 0 78571.4 291667 0 98214.3 291667 0 117857 291667 0 137500 291667 0 157143 291667 0 176786 291667 0 196429 291667 0 216071 291667 0 235714 291667 0 255357 291667 0 275000 291667 0 294643 291667 0 314286 291667 0 333929 291667 0 353571 291667 0 373214 291667 0 392857 291667 0 412500 291667 0 432143 291667 0 451786 291667 0 471429 291667 0 491071 291667 0 510714 291667 0 530357 291667 0 550000 291667 0 0 311111 0 19642.9 311111 0 39285.7 311111 0 58928.6 311111 0 78571.4 311111 0 98214.3 311111 0 117857 311111 0 137500 311111 0 157143 311111 0 176786 311111 0 196429 311111 0 216071 311111 0 235714 311111 0 255357 311111 0 275000 311111 0 294643 311111 0 314286 311111 0 333929 311111 0 353571 311111 0 373214 311111 0 392857 311111 0 412500 311111 0 432143 311111 0 451786 311111 0 471429 311111 0 491071 311111 0 510714 311111 0 530357 311111 0 550000 311111 0 0 330556 0 19642.9 330556 0 39285.7 330556 0 58928.6 330556 0 78571.4 330556 0 98214.3 330556 0 117857 330556 0 137500 330556 0 157143 330556 0 176786 330556 0 196429 330556 0 216071 330556 0 235714 330556 0 255357 330556 0 275000 330556 0 294643 330556 0 314286 330556 0 333929 330556 0 353571 330556 0 373214 330556 0 392857 330556 0 412500 330556 0 432143 330556 0 451786 330556 0 471429 330556 0 491071 330556 0 510714 330556 0 530357 330556 0 550000 330556 0 0 350000 0 19642.9 350000 0 39285.7 350000 0 58928.6 350000 0 78571.4 350000 0 98214.3 350000 0 117857 350000 0 137500 350000 0 157143 350000 0 176786 350000 0 196429 350000 0 216071 350000 0 235714 350000 0 255357 350000 0 275000 350000 0 294643 350000 0 314286 350000 0 333929 350000 0 353571 350000 0 373214 350000 0 392857 350000 0 412500 350000 0 432143 350000 0 451786 350000 0 471429 350000 0 491071 350000 0 510714 350000 0 530357 350000 0 550000 350000 0 
</DataArray>
</Points>
<Cells>
<DataArray Name="connectivity" format="ascii" type="Int64">