<?xml version="1.0"?>
<VTKFile byte_order="LittleEndian" type="UnstructuredGrid" version="0.1">
<UnstructuredGrid>
<Piece NumberOfCells="750" NumberOfPoints="1056">
<PointData>
<DataArray Name="Depth wrt surface" format="ascii" type="Float64">
195709 182661 169614 156567 143520 130472 117425 104378 91330.7 78283.5 65236.2 52189 39141.7 26094.5 13047.2 0 196084 183011 169939 156867 143795 130722 117650 104578 91505.6 78433.4 65361.2 52288.9 39216.7 26144.5 13072.2 0 196863 183739 170615 157491 144366 131242 118118 104994 91869.5 78745.3 65621.1 52496.9 39372.7 26248.4 13124.2 0 197528 184360 171191 158023 144854 131685 118517 105348 92179.8 79011.3 65842.7 52674.2 39505.6 26337.1 13168.5 0 197059 183922 170784 157647 144510 131373 118235 105098 91960.9 78823.6 65686.3 52549.1 39411.8 26274.5 13137.3 0 196693 183580 170468 157355 144242 131129 118016 104903 91790.2 78677.3 65564.4 52451.5 39338.7 26225.8 13112.9 0 195507 182473 169439 156406 143372 130338 117304 104270 91236.6 78202.8 65169 52135.2 39101.4 26067.6 13033.8 0 195935 182872 169810 156748 143686 130623 117561 104499 91436.2 78373.9 65311.6 52249.3 39187 26124.6 13062.3 0 197011 183877 170743 157609 144475 131341 118207 105073 91938.6 78804.5 65670.4 52536.3 39402.3 26268.2 13134.1 0 197080 183942 170803 157664 144526 131387 118248 105110 91970.9 78832.2 65693.5 52554.8 39416.1 26277.4 13138.7 0 198023 184822 171620 158419 145217 132015 118814 105612 92410.8 79209.3 66007.7 52806.2 39604.6 26403.1 13201.5 0 198388 185162 171936 158710 145484 132258 119033 105807 92580.9 79355 66129.2 52903.4 39677.5 26451.7 13225.8 0 195499 182465 169432 156399 143366 130332 117299 104266 91232.7 78199.5 65166.2 52133 39099.7 26066.5 13033.2 0 195731 182683 169634 156585 143536 130488 117439 104390 91341.4 78292.6 65243.8 52195.1 39146.3 26097.5 13048.8 0 197233 184084 170935 157786 144638 131489 118340 105191 92042.1 78893.2 65744.3 52595.5 39446.6 26297.7 13148.9 0 196918 183790 170662 157534 144407 131279 118151 105023 91895.1 78767.2 65639.3 52511.5 39383.6 26255.7 13127.9 0 197201 184054 170908 157761 144614 131467 118321 105174 92027.2 78880.4 65733.7 52587 39440.2 26293.5 13146.7 0 198164 184953 171742 158531 145320 132109 118898 105687 92476.3 79265.4 66054.5 52843.6 39632.7 26421.8 13210.9 0 196138 183063 169987 156911 143835 130759 117683 104607 91531.3 78455.4 65379.5 52303.6 39227.7 26151.8 13075.9 0 201055 187651 174248 160844 147440 134037 120633 107229 93825.6 80422 67018.3 53614.7 40211 26807.3 13403.7 0 201346 187923 174500 161077 147654 134231 120807 107384 93961.4 80538.3 67115.3 53692.2 40269.2 26846.1 13423.1 0 198717 185469 172221 158974 145726 132478 119230 105982 92734.6 79486.8 66239 52991.2 39743.4 26495.6 13247.8 0 196885 183759 170633 157508 144382 131256 118131 105005 91879.5 78753.8 65628.2 52502.6 39376.9 26251.3 13125.6 0 197170 184025 170880 157736 144591 131446 118302 105157 92012.5 78867.8 65723.2 52578.6 39433.9 26289.3 13144.6 0 204061 190457 176853 163249 149645 136041 122437 108833 95228.6 81624.6 68020.5 54416.4 40812.3 27208.2 13604.1 0 200812 187425 174037 160650 147262 133875 120487 107100 93712.5 80325 66937.5 53550 40162.5 26775 13387.5 0 200311 186957 173603 160249 146895 133541 120187 106833 93478.4 80124.4 66770.3 53416.3 40062.2 26708.1 13354.1 0 201397 187970 174544 161117 147691 134264 120838 107412 93985.1 80558.7 67132.2 53705.8 40279.3 26852.9 13426.4 0 199616 186309 173001 159693 146385 133078 119770 106462 93154.3 79846.5 66538.8 53231 39923.3 26615.5 13307.8 0 197655 184478 171301 158124 144947 131770 118593 105416 92239 79062 65885 52708 39531 26354 13177 0 200684 187305 173926 160547 147168 133789 120410 107032 93652.6 80273.6 66894.7 53515.8 40136.8 26757.9 13378.9 0 200167 186823 173478 160134 146789 133445 120100 106756 93411.5 80067 66722.5 53378 40033.5 26689 13344.5 0 200162 186818 173474 160130 146785 133441 120097 106753 93408.9 80064.8 66720.7 53376.5 40032.4 26688.3 13344.1 0 200272 186921 173569 160218 146866 133515 120163 106812 93460.3 80108.8 66757.3 53405.9 40054.4 26702.9 13351.5 0 202057 188586 175116 161645 148175 134704 121234 107764 94293.1 80822.7 67352.2 53881.8 40411.3 26940.9 13470.4 0 200381 187022 173664 160305 146946 133587 120229 106870 93511.1 80152.4 66793.7 53434.9 40076.2 26717.5 13358.7 0 200324 186969 173614 160259 146905 133550 120195 106840 93484.7 80129.7 66774.8 53419.8 40064.9 26709.9 13355 0 200172 186827 173482 160137 146793 133448 120103 106758 93413.5 80068.7 66723.9 53379.2 40034.4 26689.6 13344.8 0 200117 186776 173434 160093 146752 133411 120070 106729 93387.8 80046.7 66705.6 53364.4 40023.3 26682.2 13341.1 0 200211 186863 173516 160168 146821 133474 120126 106779 93431.6 80084.2 66736.9 53389.5 40042.1 26694.7 13347.4 0 200158 186814 173471 160127 146783 133439 120095 106751 93407.2 80063.3 66719.4 53375.5 40031.7 26687.8 13343.9 0 200300 186947 173594 160240 146887 133534 120180 106827 93473.5 80120.1 66766.8 53413.4 40060.1 26706.7 13353.4 0 200217 186869 173521 160173 146826 133478 120130 106782 93434.5 80086.7 66738.9 53391.1 40043.4 26695.6 13347.8 0 200139 186797 173454 160111 146769 133426 120083 106741 93398.3 80055.7 66713.1 53370.4 40027.8 26685.2 13342.6 0 200105 186765 173425 160084 146744 133404 120063 106723 93382.5 80042.1 66701.8 53361.4 40021.1 26680.7 13340.4 0 200134 186792 173450 160107 146765 133423 120081 106738 93396 80053.7 66711.4 53369.1 40026.8 26684.6 13342.3 0 200169 186825 173480 160135 146791 133446 120102 106757 93412.3 80067.7 66723.1 53378.5 40033.9 26689.2 13344.6 0 200341 186985 173628 160272 146916 133560 120204 106848 93492.3 80136.2 66780.2 53424.2 40068.1 26712.1 13356 0 200176 186831 173486 160141 146796 133450 120105 106760 93415.3 80070.3 66725.2 53380.2 40035.1 26690.1 13345 0 200099 186760 173420 160080 146740 133400 120060 106720 93379.8 80039.8 66699.8 53359.9 40019.9 26679.9 13340 0 200054 186717 173380 160043 146706 133369 120032 106695 93358.5 80021.5 66684.6 53347.7 40010.8 26673.8 13336.9 0 200293 186940 173587 160234 146882 133529 120176 106823 93470.1 80117.2 66764.3 53411.5 40058.6 26705.7 13352.9 0 200694 187315 173935 160556 147176 133796 120417 107037 93657.4 80277.8 66898.1 53518.5 40138.9 26759.3 13379.6 0 200096 186756 173416 160076 146737 133397 120057 106718 93377.9 80038.2 66698.5 53358.8 40019.1 26679.4 13339.7 0 200213 186865 173518 160170 146823 133475 120128 106780 93432.7 80085.2 66737.7 53390.1 40042.6 26695.1 13347.5 0 200060 186723 173386 160048 146711 133374 120036 106699 93361.5 80024.1 66686.8 53349.4 40012.1 26674.7 13337.4 0 200051 186714 173377 160041 146704 133367 120030 106694 93357 80020.3 66683.6 53346.9 40010.2 26673.4 13336.7 0 200237 186887 173538 160189 146840 133491 120142 106793 93443.7 80094.6 66745.5 53396.4 40047.3 26698.2 13349.1 0 200640 187264 173888 160512 147136 133760 120384 107008 93631.9 80255.9 66880 53504 40128 26752 13376 0 200060 186722 173385 160048 146710 133373 120036 106698 93361.2 80023.8 66686.5 53349.2 40011.9 26674.6 13337.3 0 200211 186863 173516 160169 146821 133474 120126 106779 93431.7 80084.3 66736.9 53389.5 40042.1 26694.8 13347.4 0 200089 186749 173410 160071 146732 133392 120053 106714 93374.7 80035.4 66696.2 53357 40017.7 26678.5 13339.2 0 200081 186743 173404 160065 146726 133388 120049 106710 93371.3 80032.6 66693.8 53355 40016.3 26677.5 13338.8 0 200180 186835 173490 160144 146799 133453 120108 106763 93417.4 80072.1 66726.7 53381.4 40036 26690.7 13345.3 0 200338 186983 173627 160271 146915 133559 120203 106847 93491.3 80135.4 66779.5 53423.6 40067.7 26711.8 13355.9 0 199506 186205 172905 159605 146304 133004 119703 106403 93102.7 79802.3 66501.9 53201.5 39901.1 26600.8 13300.4 0 
</DataArray>
<DataArray Name="Depth wrt reference" format="ascii" type="Float64">
200000 186953 173906 160858 147811 134764 121717 108669 95622 82574.8 69527.5 56480.3 43433 30385.8 17338.6 4291.31 200000 186928 173856 160783 147711 134639 121567 108494 95422.1 82349.9 69277.7 56205.4 43133.2 30061 16988.7 3916.49 200000 186876 173752 160627 147503 134379 121255 108130 95006.3 81882 68757.8 55633.6 42509.4 29385.2 16260.9 3136.73 200000 186831 173663 160494 147326 134157 120989 107820 94651.6 81483.1 68314.5 55146 41977.4 28808.9 15640.3 2471.79 200000 186863 173725 160588 147451 134314 121176 108039 94901.9 81764.6 68627.3 55490 42352.8 29215.5 16078.2 2940.97 200000 186887 173774 160661 147548 134436 121323 108210 95096.9 81984 68871.2 55758.3 42645.4 29532.5 16419.6 3306.73 200000 186966 173932 160899 147865 134831 121797 108763 95729.6 82695.8 69662 56628.2 43594.4 30560.6 17526.8 4493 200000 186938 173875 160813 147751 134688 121626 108564 95501.4 82439.1 69376.8 56314.5 43252.2 30189.8 17127.5 4065.19 200000 186866 173732 160598 147464 134330 121195 108061 94927.3 81793.2 68659.1 55525 42391 29256.9 16122.8 2988.7 200000 186861 173723 160584 147445 134307 121168 108029 94890.4 81751.7 68613 55474.3 42335.6 29196.9 16058.3 2919.55 200000 186798 173597 160395 147194 133992 120791 107589 94387.6 81186.1 67984.5 54783 41581.4 28379.9 15178.4 1976.81 200000 186774 173548 160322 147097 133871 120645 107419 94193.3 80967.4 67741.6 54515.7 41289.9 28064.1 14838.2 1612.38 200000 186967 173934 160900 147867 134834 121801 108767 95734 82700.8 69667.5 56634.3 43601 30567.8 17534.5 4501.29 200000 186951 173902 160854 147805 134756 121707 108659 95609.9 82561.1 69512.3 56463.6 43414.8 30366 17317.3 4268.51 200000 186851 173702 160553 147405 134256 121107 107958 94809.1 81660.2 68511.3 55362.5 42213.6 29064.7 15915.9 2766.99 200000 186872 173744 160616 147489 134361 121233 108105 94977.1 81849.2 68721.3 55593.5 42465.6 29337.7 16209.9 3082 200000 186853 173707 160560 147413 134266 121120 107973 94826.1 81679.3 68532.6 55385.9 42239.1 29092.4 15945.6 2798.9 200000 186789 173578 160367 147156 133945 120735 107524 94312.8 81101.9 67891 54680.1 41469.2 28258.3 15047.4 1836.45 200000 186924 173848 160772 147696 134621 121545 108469 95392.8 82316.9 69241 56165.2 43089.3 30013.4 16937.5 3861.57 200000 186596 173193 159789 146385 132982 119578 106174 92770.7 79367 65963.4 52559.7 39156 25752.4 12348.7 -1054.95 200000 186577 173154 159731 146308 132885 119462 106039 92615.6 79192.5 65769.5 52346.4 38923.4 25500.3 12077.3 -1345.79 200000 186752 173504 160257 147009 133761 120513 107265 94017.6 80769.8 67522 54274.2 41026.4 27778.6 14530.8 1282.97 200000 186874 173749 160623 147497 134372 121246 108121 94994.9 81869.3 68743.6 55618 42492.3 29366.7 16241.1 3115.43 200000 186855 173711 160566 147421 134277 121132 107988 94842.9 81698.2 68553.6 55409 42264.3 29119.7 15975 2830.41 200000 186396 172792 159188 145584 131980 118375 104771 91167.3 77563.2 63959.1 50355 36750.9 23146.8 9542.72 -4061.38 200000 186613 173225 159838 146450 133063 119675 106288 92900 79512.5 66125 52737.5 39350 25962.5 12575 -812.496 200000 186646 173292 159938 146584 133230 119876 106522 93167.5 79813.4 66459.4 53105.3 39751.2 26397.2 13043.1 -310.951 200000 186574 173147 159721 146294 132868 119441 106015 92588.4 79162 65735.5 52309.1 38882.6 25456.2 12029.7 -1396.74 200000 186692 173384 160077 146769 133461 120153 106846 93538 80230.2 66922.5 53614.7 40306.9 26999.2 13691.4 383.686 200000 186823 173646 160469 147292 134115 120938 107761 94584 81407 68230 55053 41876 28699 15522 2345.04 200000 186621 173242 159863 146484 133105 119726 106347 92968.5 79589.6 66210.6 52831.7 39452.7 26073.8 12694.9 -684.063 200000 186656 173311 159967 146622 133278 119933 106589 93244 79899.5 66555 53210.5 39866 26521.5 13177 -167.475 200000 186656 173312 159968 146623 133279 119935 106591 93246.9 79902.8 66558.6 53214.5 39870.4 26526.2 13182.1 -162.034 200000 186649 173297 159946 146594 133243 119891 106540 93188.3 79836.8 66485.3 53133.9 39782.4 26430.9 13079.5 -271.99 200000 186530 173059 159589 146118 132648 119177 105707 92236.4 78766 65295.5 51825.1 38354.7 24884.2 11413.8 -2056.68 200000 186641 173283 159924 146565 133206 119848 106489 93130.1 79771.4 66412.7 53053.9 39695.2 26336.4 12977.7 -381.025 200000 186645 173290 159935 146580 133225 119870 106515 93160.3 79805.4 66450.4 53095.5 39740.5 26385.6 13030.6 -324.347 200000 186655 173310 159966 146621 133276 119931 106586 93241.7 79896.9 66552.1 53207.3 39862.5 26517.8 13173 -171.822 200000 186659 173318 159977 146636 133294 119953 106612 93271.1 79930 66588.9 53247.8 39906.7 26565.6 13224.4 -116.663 200000 186653 173305 159958 146611 133263 119916 106568 93221 79873.7 66526.3 53178.9 39831.6 26484.2 13136.8 -210.555 200000 186656 173312 159968 146624 133281 119937 106593 93248.9 79905 66561.1 53217.2 39873.4 26529.5 13185.6 -158.312 200000 186647 173293 159940 146587 133233 119880 106526 93173.1 79819.8 66466.4 53113.1 39759.7 26406.3 13053 -300.374 200000 186652 173304 159957 146609 133261 119913 106565 93217.7 79869.9 66522.1 53174.3 39826.6 26478.8 13131 -216.798 200000 186657 173315 159972 146630 133287 119944 106602 93259.1 79916.5 66573.9 53231.3 39888.7 26546.1 13203.4 -139.166 200000 186660 173319 159979 146639 133298 119958 106618 93277.2 79936.8 66596.5 53256.1 39915.8 26575.4 13235.1 -105.292 200000 186658 173315 159973 146631 133289 119946 106604 93261.8 79919.5 66577.2 53234.9 39892.6 26550.3 13208.1 -134.219 200000 186655 173311 159966 146622 133277 119932 106588 93243 79898.4 66553.8 53209.2 39864.6 26519.9 13175.3 -169.311 200000 186644 173288 159932 146576 133220 119864 106508 93151.7 79795.7 66439.6 53083.6 39727.5 26371.5 13015.5 -340.576 200000 186655 173310 159965 146620 133275 119930 106585 93239.6 79894.6 66549.5 53204.5 39859.4 26514.4 13169.3 -175.713 200000 186660 173320 159980 146640 133300 119960 106620 93280.3 79940.3 66600.3 53260.4 39920.4 26580.4 13240.5 -99.4955 200000 186663 173326 159989 146652 133315 119978 106642 93304.6 79967.7 66630.8 53293.8 39956.9 26620 13283.1 -53.8673 200000 186647 173294 159941 146589 133236 119883 106530 93177.1 79824.2 66471.3 53118.4 39765.6 26412.7 13059.8 -293.023 200000 186620 173241 159861 146481 133102 119722 106343 92963 79583.3 66203.7 52824.1 39444.4 26064.8 12685.2 -694.44 200000 186660 173321 159981 146641 133301 119962 106622 93282.4 79942.7 66603 53263.2 39923.5 26583.8 13244.1 -95.5695 200000 186652 173305 159957 146610 133262 119915 106567 93219.7 79872.2 66524.6 53177.1 39829.6 26482 13134.5 -213.036 200000 186663 173325 159988 146651 133313 119976 106639 93301.2 79963.8 66626.5 53289.1 39951.8 26614.4 13277.1 -60.2674 200000 186663 173327 159990 146653 133316 119980 106643 93306.3 79969.5 66632.8 53296.1 39959.4 26622.7 13286 -50.7671 200000 186651 173302 159953 146604 133254 119905 106556 93207.2 79858.1 66509 53159.9 39810.8 26461.7 13112.6 -236.514 200000 186624 173248 159872 146496 133120 119744 106368 92992.1 79616.1 66240.1 52864.1 39488.1 26112.1 12736.1 -639.859 200000 186663 173325 159988 146651 133313 119976 106639 93301.5 79964.2 66626.9 53289.6 39952.3 26615 13277.7 -59.6239 200000 186653 173305 159958 146610 133263 119916 106568 93221 79873.6 66526.2 53178.8 39831.4 26484 13136.7 -210.712 200000 186661 173322 159982 146643 133304 119965 106625 93286.1 79946.8 66607.6 53268.4 39929.1 26589.9 13250.6 -88.5968 200000 186661 173322 159984 146645 133306 119967 106629 93289.9 79951.2 66612.4 53273.7 39934.9 26596.1 13257.4 -81.3795 200000 186655 173309 159964 146619 133273 119928 106583 93237.2 79891.9 66546.5 53201.2 39855.8 26510.5 13165.1 -180.216 200000 186644 173288 159932 146576 133221 119865 106509 93152.8 79796.9 66441 53085.1 39729.2 26373.3 13017.4 -338.458 200000 186700 173399 160099 146798 133498 120198 106897 93596.9 80296.6 66996.2 53695.8 40395.4 27095 13794.6 494.259 
</DataArray>
<DataArray Name="Topography" format="ascii" type="Float64">
-4291.31 -4291.31 -4291.31 -4291.31 -4291.31 -4291.31 -4291.31 -4291.31 -4291.31 -4291.31 -4291.31 -4291.31 -4291.31 -4291.31 -4291.31 -4291.31 -3916.49 -3916.49 -3916.49 -3916.49 -3916.49 -3916.49 -3916.49 -3916.49 -3916.49 -3916.49 -3916.49 -3916.49 -3916.49 -3916.49 -3916.49 -3916.49 -3136.73 -3136.73 -3136.73 -3136.73 -3136.73 -3136.73 -3136.73 -3136.73 -3136.73 -3136.73 -3136.73 -3136.73 -3136.73 -3136.73 -3136.73 -3136.73 -2471.79 -2471.79 -2471.79 -2471.79 -2471.79 -2471.79 -2471.79 -2471.79 -2471.79 -2471.79 -2471.79 -2471.79 -2471.79 -2471.79 -2471.79 -2471.79 -2940.97 -2940.97 -2940.97 -2940.97 -2940.97 -2940.97 -2940.97 -2940.97 -2940.97 -2940.97 -2940.97 -2940.97 -2940.97 -2940.97 -2940.97 -2940.97 -3306.73 -3306.73 -3306.73 -3306.73 -3306.73 -3306.73 -3306.73 -3306.73 -3306.73 -3306.73 -3306.73 -3306.73 -3306.73 -3306.73 -3306.73 -3306.73 -4493 -4493 -4493 -4493 -4493 -4493 -4493 -4493 -4493 -4493 -4493 -4493 -4493 -4493 -4493 -4493 -4065.19 -4065.19 -4065.19 -4065.19 -4065.19 -4065.19 -4065.19 -4065.19 -4065.19 -4065.19 -4065.19 -4065.19 -4065.19 -4065.19 -4065.19 -4065.19 -2988.7 -2988.7 -2988.7 -2988.7 -2988.7 -2988.7 -2988.7 -2988.7 -2988.7 -2988.7 -2988.7 -2988.7 -2988.7 -2988.7 -2988.7 -2988.7 -2919.55 -2919.55 -2919.55 -2919.55 -2919.55 -2919.55 -2919.55 -2919.55 -2919.55 -2919.55 -2919.55 -2919.55 -2919.55 -2919.55 -2919.55 -2919.55 -1976.81 -1976.81 -1976.81 -1976.81 -1976.81 -1976.81 -1976.81 -1976.81 -1976.81 -1976.81 -1976.81 -1976.81 -1976.81 -1976.81 -1976.81 -1976.81 -1612.38 -1612.38 -1612.38 -1612.38 -1612.38 -1612.38 -1612.38 -1612.38 -1612.38 -1612.38 -1612.38 -1612.38 -1612.38 -1612.38 -1612.38 -1612.38 -4501.29 -4501.29 -4501.29 -4501.29 -4501.29 -4501.29 -4501.29 -4501.29 -4501.29 -4501.29 -4501.29 -4501.29 -4501.29 -4501.29 -4501.29 -4501.29 -4268.51 -4268.51 -4268.51 -4268.51 -4268.51 -4268.51 -4268.51 -4268.51 -4268.51 -4268.51 -4268.51 -4268.51 -4268.51 -4268.51 -4268.51 -4268.51 -2766.99 -2766.99 -2766.99 -2766.99 -2766.99 -2766.99 -2766.99 -2766.99 -2766.99 -2766.99 -2766.99 -2766.99 -2766.99 -2766.99 -2766.99 -2766.99 -3082 -3082 -3082 -3082 -3082 -3082 -3082 -3082 -3082 -3082 -3082 -3082 -3082 -3082 -3082 -3082 -2798.9 -2798.9 -2798.9 -2798.9 -2798.9 -2798.9 -2798.9 -2798.9 -2798.9 -2798.9 -2798.9 -2798.9 -2798.9 -2798.9 -2798.9 -2798.9 -1836.45 -1836.45 -1836.45 -1836.45 -1836.45 -1836.45 -1836.45 -1836.45 -1836.45 -1836.45 -1836.45 -1836.45 -1836.45 -1836.45 -1836.45 -1836.45 -3861.57 -3861.57 -3861.57 -3861.57 -3861.57 -3861.57 -3861.57 -3861.57 -3861.57 -3861.57 -3861.57 -3861.57 -3861.57 -3861.57 -3861.57 -3861.57 1054.95 1054.95 1054.95 1054.95 1054.95 1054.95 1054.95 1054.95 1054.95 1054.95 1054.95 1054.95 1054.95 1054.95 1054.95 1054.95 1345.79 1345.79 1345.79 1345.79 1345.79 1345.79 1345.79 1345.79 1345.79 1345.79 1345.79 1345.79 1345.79 1345.79 1345.79 1345.79 -1282.97 -1282.97 -1282.97 -1282.97 -1282.97 -1282.97 -1282.97 -1282.97 -1282.97 -1282.97 -1282.97 -1282.97 -1282.97 -1282.97 -1282.97 -1282.97 -3115.43 -3115.43 -3115.43 -3115.43 -3115.43 -3115.43 -3115.43 -3115.43 -3115.43 -3115.43 -3115.43 -3115.43 -3115.43 -3115.43 -3115.43 -3115.43 -2830.41 -2830.41 -2830.41 -2830.41 -2830.41 -2830.41 -2830.41 -2830.41 -2830.41 -2830.41 -2830.41 -2830.41 -2830.41 -2830.41 -2830.41 -2830.41 4061.38 4061.38 4061.38 4061.38 4061.38 4061.38 4061.38 4061.38 4061.38 4061.38 4061.38 4061.38 4061.38 4061.38 4061.38 4061.38 812.496 812.496 812.496 812.496 812.496 812.496 812.496 812.496 812.496 812.496 812.496 812.496 812.496 812.496 812.496 812.496 310.951 310.951 310.951 310.951 310.951 310.951 310.951 310.951 310.951 310.951 310.951 310.951 310.951 310.951 310.951 310.951 1396.74 1396.74 1396.74 1396.74 1396.74 1396.74 1396.74 1396.74 1396.74 1396.74 1396.74 1396.74 1396.74 1396.74 1396.74 1396.74 -383.686 -383.686 -383.686 -383.686 -383.686 -383.686 -383.686 -383.686 -383.686 -383.686 -383.686 -383.686 -383.686 -383.686 -383.686 -383.686 -2345.04 -2345.04 -2345.04 -2345.04 -2345.04 -2345.04 -2345.04 -2345.04 -2345.04 -2345.04 -2345.04 -2345.04 -2345.04 -2345.04 -2345.04 -2345.04 684.063 684.063 684.063 684.063 684.063 684.063 684.063 684.063 684.063 684.063 684.063 684.063 684.063 684.063 684.063 684.063 167.475 167.475 167.475 167.475 167.475 167.475 167.475 167.475 167.475 167.475 167.475 167.475 167.475 167.475 167.475 167.475 162.034 162.034 162.034 162.034 162.034 162.034 162.034 162.034 162.034 162.034 162.034 162.034 162.034 162.034 162.034 162.034 271.99 271.99 271.99 271.99 271.99 271.99 271.99 271.99 271.99 271.99 271.99 271.99 271.99 271.99 271.99 271.99 2056.68 2056.68 2056.68 2056.68 2056.68 2056.68 2056.68 2056.68 2056.68 2056.68 2056.68 2056.68 2056.68 2056.68 2056.68 2056.68 381.025 381.025 381.025 381.025 381.025 381.025 381.025 381.025 381.025 381.025 381.025 381.025 381.025 381.025 381.025 381.025 324.347 324.347 324.347 324.347 324.347 324.347 324.347 324.347 324.347 324.347 324.347 324.347 324.347 324.347 324.347 324.347 171.822 171.822 171.822 171.822 171.822 171.822 171.822 171.822 171.822 171.822 171.822 171.822 171.822 171.822 171.822 171.822 116.663 116.663 116.663 116.663 116.663 116.663 116.663 116.663 116.663 116.663 116.663 116.663 116.663 116.663 116.663 116.663 210.555 210.555 210.555 210.555 210.555 210.555 210.555 210.555 210.555 210.555 210.555 210.555 210.555 210.555 210.555 210.555 158.312 158.312 158.312 158.312 158.312 158.312 158.312 158.312 158.312 158.312 158.312 158.312 158.312 158.312 158.312 158.312 300.374 300.374 300.374 300.374 300.374 300.374 300.374 300.374 300.374 300.374 300.374 300.374 300.374 300.374 300.374 300.374 216.798 216.798 216.798 216.798 216.798 216.798 216.798 216.798 216.798 216.798 216.798 216.798 216.798 216.798 216.798 216.798 139.166 139.166 139.166 139.166 139.166 139.166 139.166 139.166 139.166 139.166 139.166 139.166 139.166 139.166 139.166 139.166 105.292 105.292 105.292 105.292 105.292 105.292 105.292 105.292 105.292 105.292 105.292 105.292 105.292 105.292 105.292 105.292 134.219 134.219 134.219 134.219 134.219 134.219 134.219 134.219 134.219 134.219 134.219 134.219 134.219 134.219 134.219 134.219 169.311 169.311 169.311 169.311 169.311 169.311 169.311 169.311 169.311 169.311 169.311 169.311 169.311 169.311 169.311 169.311 340.576 340.576 340.576 340.576 340.576 340.576 340.576 340.576 340.576 340.576 340.576 340.576 340.576 340.576 340.576 340.576 175.713 175.713 175.713 175.713 175.713 175.713 175.713 175.713 175.713 175.713 175.713 175.713 175.713 175.713 175.713 175.713 99.4955 99.4955 99.4955 99.4955 99.4955 99.4955 99.4955 99.4955 99.4955 99.4955 99.4955 99.4955 99.4955 99.4955 99.4955 99.4955 53.8673 53.8673 53.8673 53.8673 53.8673 53.8673 53.8673 53.8673 53.8673 53.8673 53.8673 53.8673 53.8673 53.8673 53.8673 53.8673 293.023 293.023 293.023 293.023 293.023 293.023 293.023 293.023 293.023 293.023 293.023 293.023 293.023 293.023 293.023 293.023 694.44 694.44 694.44 694.44 694.44 694.44 694.44 694.44 694.44 694.44 694.44 694.44 694.44 694.44 694.44 694.44 95.5695 95.5695 95.5695 95.5695 95.5695 95.5695 95.5695 95.5695 95.5695 95.5695 95.5695 95.5695 95.5695 95.5695 95.5695 95.5695 213.036 213.036 213.036 213.036 213.036 213.036 213.036 213.036 213.036 213.036 213.036 213.036 213.036 213.036 213.036 213.036 60.2674 60.2674 60.2674 60.2674 60.2674 60.2674 60.2674 60.2674 60.2674 60.2674 60.2674 60.2674 60.2674 60.2674 60.2674 60.2674 50.7671 50.7671 50.7671 50.7671 50.7671 50.7671 50.7671 50.7671 50.7671 50.7671 50.7671 50.7671 50.7671 50.7671 50.7671 50.7671 236.514 236.514 236.514 236.514 236.514 236.514 236.514 236.514 236.514 236.514 236.514 236.514 236.514 236.514 236.514 236.514 639.859 639.859 639.859 639.859 639.859 639.859 639.859 639.859 639.859 639.859 639.859 639.859 639.859 639.859 639.859 639.859 59.6239 59.6239 59.6239 59.6239 59.6239 59.6239 59.6239 59.6239 59.6239 59.6239 59.6239 59.6239 59.6239 59.6239 59.6239 59.6239 210.712 210.712 210.712 210.712 210.712 210.712 210.712 210.712 210.712 210.712 210.712 210.712 210.712 210.712 210.712 210.712 88.5968 88.5968 88.5968 88.5968 88.5968 88.5968 88.5968 88.5968 88.5968 88.5968 88.5968 88.5968 88.5968 88.5968 88.5968 88.5968 81.3795 81.3795 81.3795 81.3795 81.3795 81.3795 81.3795 81.3795 81.3795 81.3795 81.3795 81.3795 81.3795 81.3795 81.3795 81.3795 180.216 180.216 180.216 180.216 180.216 180.216 180.216 180.216 180.216 180.216 180.216 180.216 180.216 180.216 180.216 180.216 338.458 338.458 338.458 338.458 338.458 338.458 338.458 338.458 338.458 338.458 338.458 338.458 338.458 338.458 338.458 338.458 -494.259 -494.259 -494.259 -494.259 -494.259 -494.259 -494.259 -494.259 -494.259 -494.259 -494.259 -494.259 -494.259 -494.259 -494.259 -494.259 
</DataArray>
<DataArray Name="Temperature" format="ascii" type="Float64">