<?xml version="1.0"?>
<VTKFile byte_order="LittleEndian" type="UnstructuredGrid" version="0.1">
<UnstructuredGrid>
<Piece NumberOfCells="16" NumberOfPoints="35">
<PointData>
<DataArray Name="Depth" format="ascii" type="Float64">
213889 213889 194444 194444 175000 175000 155556 155556 136111 136111 116667 116667 97222.2 97222.2 77777.8 77777.8 58333.3 58333.3 38888.9 38888.9 19444.4 19444.4 38888.9 38888.9 19444.4 19444.4 38888.9 19444.4 0 0 19444.4 0 0 0 0 
</DataArray>
<DataArray Name="Temperature" format="ascii" type="Float64">
1698.75 1698.75 1689.53 1689.53 1680.35 1680.35 1671.23 1671.23 1662.15 1662.15 1653.13 1653.13 1644.15 1644.15 1635.23 1635.23 1626.35 1626.35 1617.52 1617.52 1608.73 1608.73 1617.52 1617.52 1608.73 1608.73 1617.52 1608.73 1600 1600 1608.73 1600 1600 1600 1600 
</DataArray>
<DataArray Name="Tag" format="ascii" type="Float64">
-1 -1 1 1 1 1 1 1 1 1 1 1 1 1 1 1 1 1 1 1 1 1 1 1 1 1 1 1 1 1 1 1 1 1 1 
</DataArray>
<DataArray Name="Composition 0" format="ascii" type="Float64">
0 0 0 0 0 0 0 0 0 0 0 0 0 0 0 0 0 0 0 0 0 0 0 0 0 0 0 0 0 0 0 0 0 0 0 
</DataArray>
<DataArray Name="Composition 1" format="ascii" type="Float64">
0 0 0 0 0 0 0 0 0 0 0 0 0 0 0 0 0 0 0 0 0 0 0 0 0 0 0 0 0 0 0 0 0 0 0 
</DataArray>
<DataArray Name="Composition 2" format="ascii" type="Float64">
0 0 0 0 0 0 0 0 0 0 0 0 0 0 0 0 0 0 0 0 0 0 0 0 0 0 0 0 0 0 0 0 0 0 0 
</DataArray>
<DataArray Name="Composition 3" format="ascii" type="Float64">
0 0 0 0 0 0 0 0 0 0 0 0 0 0 0 0 0 0 0 0 1 1 0 0 1 1 0 1 1 1 1 1 1 1 1 
</DataArray>
<DataArray Name="Composition 4" format="ascii" type="Float64">
0 0 1 1 1 1 1 1 1 1 1 1 1 1 1 1 1 1 1 1 0 0 1 1 0 0 1 0 0 0 0 0 0 0 0 
</DataArray>
<DataArray Name="Composition 5" format="ascii" type="Float64">
0 0 0 0 0 0 0 0 0 0 0 0 0 0 0 0 0 0 0 0 0 0 0 0 0 0 0 0 0 0 0 0 0 0 0 
</DataArray>
<DataArray Name="Composition 6" format="ascii" type="Float64">
0 0 1.5 1.5 1.5 1.5 1.5 1.5 0.5 0.5 0.5 0.5 0.5 0.5 0.5 0.5 1 1 1 1 0 0 1 1 0 0 1 0 0 0 0 0 0 0 0 
</DataArray>
</PointData>
<CellData>
</CellData>
<Points>
<DataArray NumberOfComponents="3" format="ascii" type="Float64">
0 136111 0 19642.9 136111 0 19642.9 155556 0 0 155556 0 19642.9 175000 0 0 175000 0 19642.9 194444 0 0 194444 0 19642.9 213889 0 0 213889 0 19642.9 233333 0 0 233333 0 19642.9 252778 0 0 252778 0 19642.9 272222 0 0 272222 0 19642.9 291667 0 0 291667 0 19642.9 311111 0 0 311111 0 19642.9 330556 0 0 330556 0 510714 311111 0 530357 311111 0 530357 330556 0 510714 330556 0 550000 311111 0 550000 330556 0 19642.9 350000 0 0 350000 0 491071 330556 0 510714 350000 0 491071 350000 0 530357 350000 0 550000 350000 0 
</DataArray>
</Points>
<Cells>
<DataArray Name="connectivity" format="ascii" type="Int64">
0 1 2 3 3 2 4 5 5 4 6 7 7 6 8 9 9 8 10 11 11 10 12 13 13 12 14 15 15 14 16 17 17 16 18 19 19 18 20 21 22 23 24 25 23 26 27 24 21 20 28 29 30 25 31 32 25 24 33 31 24 27 34 33 
</DataArray>
<DataArray Name="offsets" format="ascii" type="Int64">
4 8 12 16 20 24 28 32 36 40 44 48 52 56 60 64 
</DataArray>
<DataArray Name="types" format="ascii" type="Int8">
9 9 9 9 9 9 9 9 9 9 9 9 9 9 9 9 
</DataArray>
</Cells>
</Piece>
</UnstructuredGrid>
</VTKFile>
