<?xml version="1.0"?>
<VTKFile type="UnstructuredGrid" version="0.1" byte_order="LittleEndian">
  <UnstructuredGrid>
    <Piece NumberOfPoints="64" NumberOfCells="64">
      <Points>
        <DataArray name="Position" type="Float64" NumberOfComponents="3" Format="ascii">
          0.0625 0.0625 0.0
          0.0625 0.1875 0.0
          0.0625 0.3125 0.0
          0.0625 0.4375 0.0
          0.1875 0.0625 0.0
          0.1875 0.1875 0.0
          0.1875 0.3125 0.0
          0.1875 0.4375 0.0
          0.3125 0.0625 0.0
          0.3125 0.1875 0.0
          0.3125 0.3125 0.0
          0.3125 0.4375 0.0
          0.4375 0.0625 0.0
          0.4375 0.1875 0.0
          0.4375 0.3125 0.0
          0.4375 0.4375 0.0
          0.5625 0.0625 0.0
          0.5625 0.1875 0.0
          0.5625 0.3125 0.0
          0.5625 0.4375 0.0
          0.6875 0.0625 0.0
          0.6875 0.1875 0.0
          0.6875 0.3125 0.0
          0.6875 0.4375 0.0
          0.8125 0.0625 0.0
          0.8125 0.1875 0.0
          0.8125 0.3125 0.0
          0.8125 0.4375 0.0
          0.9375 0.0625 0.0
          0.9375 0.1875 0.0
          0.9375 0.3125 0.0
          0.9375 0.4375 0.0
          0.0625 0.5625 0.0
          0.0625 0.6875 0.0
          0.0625 0.8125 0.0
          0.0625 0.9375 0.0
          0.1875 0.5625 0.0
          0.1875 0.6875 0.0
          0.1875 0.8125 0.0
          0.1875 0.9375 0.0
          0.3125 0.5625 0.0
          0.3125 0.6875 0.0
          0.3125 0.8125 0.0
          0.3125 0.9375 0.0
          0.4375 0.5625 0.0
          0.4375 0.6875 0.0
          0.4375 0.8125 0.0
          0.4375 0.9375 0.0
          0.5625 0.5625 0.0
          0.5625 0.6875 0.0
          0.5625 0.8125 0.0
          0.5625 0.9375 0.0
          0.6875 0.5625 0.0
          0.6875 0.6875 0.0
          0.6875 0.8125 0.0
          0.6875 0.9375 0.0
          0.8125 0.5625 0.0
          0.8125 0.6875 0.0
          0.8125 0.8125 0.0
          0.8125 0.9375 0.0
          0.9375 0.5625 0.0
          0.9375 0.6875 0.0
          0.9375 0.8125 0.0
          0.9375 0.9375 0.0
        </DataArray>
      </Points>
      <Cells>
        <DataArray type="Int32" Name="connectivity" Format="ascii">
          0
          1
          2
          3
          4
          5
          6
          7
          8
          9
          10
          11
          12
          13
          14
          15
          16
          17
          18
          19
          20
          21
          22
          23
          24
          25
          26
          27
          28
          29
          30
          31
          32
          33
          34
          35
          36
          37
          38
          39
          40
          41
          42
          43
          44
          45
          46
          47
          48
          49
          50
          51
          52
          53
          54
          55
          56
          57
          58
          59
          60
          61
          62
          63
        </DataArray>
        <DataArray type="Int32" Name="offsets" Format="ascii">
          1
          2
          3
          4
          5
          6
          7
          8
          9
          10
          11
          12
          13
          14
          15
          16
          17
          18
          19
          20
          21
          22
          23
          24
          25
          26
          27
          28
          29
          30
          31
          32
          33
          34
          35
          36
          37
          38
          39
          40
          41
          42
          43
          44
          45
          46
          47
          48
          49
          50
          51
          52
          53
          54
          55
          56
          57
          58
          59
          60
          61
          62
          63
          64
        </DataArray>
        <DataArray type="UInt8" Name="types" Format="ascii">
          1
          1
          1
          1
          1
          1
          1
          1
          1
          1
          1
          1
          1
          1
          1
          1
          1
          1
          1
          1
          1
          1
          1
          1
          1
          1
          1
          1
          1
          1
          1
          1
          1
          1
          1
          1
          1
          1
          1
          1
          1
          1
          1
          1
          1
          1
          1
          1
          1
          1
          1
          1
          1
          1
          1
          1
          1
          1
          1
          1
          1
          1
          1
          1
        </DataArray>
      </Cells>
      <PointData Scalars="scalars">
        <DataArray type="UInt64" Name="id" NumberOfComponents="1" Format="ascii">
          0
          1
          2
          3
          4
          5
          6
          7
          8
          9
          10
          11
          12
          13
          14
          15
          16
          17
          18
          19
          20
          21
          22
          23
          24
          25
          26
          27
          28
          29
          30
          31
          32
          33
          34
          35
          36
          37
          38
          39
          40
          41
          42
          43
          44
          45
          46
          47
          48
          49
          50
          51
          52
          53
          54
          55
          56
          57
          58
          59
          60
          61
          62
          63
        </DataArray>
        <DataArray type="Float64" Name="function" NumberOfComponents="3" Format="ascii">
          -0.191342 1 0
          -0.544895 1 0
          -0.815493 1 0
          -0.96194 1 0
          -0.162212 1 0
          -0.46194 1 0
          -0.691342 1 0
          -0.815493 1 0
          -0.108386 1 0
          -0.308658 1 0
          -0.46194 1 0
          -0.544895 1 0
          -0.0380602 1 0
          -0.108386 1 0
          -0.162212 1 0
          -0.191342 1 0
          0.0380602 1e+06 0
          0.108386 1e+06 0
          0.162212 1e+06 0
          0.191342 1e+06 0
          0.108386 1e+06 0
          0.308658 1e+06 0
          0.46194 1e+06 0
          0.544895 1e+06 0
          0.162212 1e+06 0
          0.46194 1e+06 0
          0.691342 1e+06 0
          0.815493 1e+06 0
          0.191342 1e+06 0
          0.544895 1e+06 0
          0.815493 1e+06 0
          0.96194 1e+06 0
          -0.96194 1 0
          -0.815493 1 0
          -0.544895 1 0
          -0.191342 1 0
          -0.815493 1 0
          -0.691342 1 0
          -0.46194 1 0
          -0.162212 1 0
          -0.544895 1 0
          -0.46194 1 0
          -0.308658 1 0
          -0.108386 1 0
          -0.191342 1 0
          -0.162212 1 0
          -0.108386 1 0
          -0.0380602 1 0
          0.191342 1e+06 0
          0.162212 1e+06 0
          0.108386 1e+06 0
          0.0380602 1e+06 0
          0.544895 1e+06 0
          0.46194 1e+06 0
          0.308658 1e+06 0
          0.108386 1e+06 0
          0.815493 1e+06 0
          0.691342 1e+06 0
          0.46194 1e+06 0
          0.162212 1e+06 0
          0.96194 1e+06 0
          0.815493 1e+06 0
          0.544895 1e+06 0
          0.191342 1e+06 0
        </DataArray>
      </PointData>
    </Piece>
  </UnstructuredGrid>
</VTKFile>
