<?xml version="1.0"?>
<VTKFile type="UnstructuredGrid" version="0.1" byte_order="LittleEndian">
  <UnstructuredGrid>
    <Piece NumberOfPoints="10" NumberOfCells="10">
      <Points>
        <DataArray name="Position" type="Float64" NumberOfComponents="3" Format="ascii">
          0.698638 0.488278 0.0
          0.930749 0.385331 0.0
          0.913599 0.379985 0.0
          0.482389 0.738385 0.0
          0.0888148 0.75635 0.0
          0.182344 0.757289 0.0
          0.4278 0.917538 0.0
          0.547755 0.742392 0.0
          0.702536 0.625864 0.0
          0.994836 0.758155 0.0
        </DataArray>
      </Points>
      <Cells>
        <DataArray type="Int32" Name="connectivity" Format="ascii">
          0
          1
          2
          3
          4
          5
          6
          7
          8
          9
        </DataArray>
        <DataArray type="Int32" Name="offsets" Format="ascii">
          1
          2
          3
          4
          5
          6
          7
          8
          9
          10
        </DataArray>
        <DataArray type="UInt8" Name="types" Format="ascii">
          1
          1
          1
          1
          1
          1
          1
          1
          1
          1
        </DataArray>
      </Cells>
      <PointData Scalars="scalars">
        <DataArray type="UInt64" Name="id" NumberOfComponents="1" Format="ascii">
          0
          1
          2
          5
          3
          4
          6
          7
          8
          9
        </DataArray>
      </PointData>
    </Piece>
  </UnstructuredGrid>
</VTKFile>
