<?xml version="1.0"?>
<VTKFile type="UnstructuredGrid" version="0.1" byte_order="LittleEndian">
  <UnstructuredGrid>
    <Piece NumberOfPoints="3" NumberOfCells="3">
      <Points>
        <DataArray name="Position" type="Float64" NumberOfComponents="3" Format="ascii">
          0.569803 0.453829 0.0
          0.631412 0.406179 0.0
          0.844559 0.32105 0.0
        </DataArray>
      </Points>
      <Cells>
        <DataArray type="Int32" Name="connectivity" Format="ascii">
          0
          1
          2
        </DataArray>
        <DataArray type="Int32" Name="offsets" Format="ascii">
          1
          2
          3
        </DataArray>
        <DataArray type="UInt8" Name="types" Format="ascii">
          1
          1
          1
        </DataArray>
      </Cells>
      <PointData Scalars="scalars">
        <DataArray type="UInt64" Name="id" NumberOfComponents="1" Format="ascii">
          0
          1
          2
        </DataArray>
        <DataArray type="Float64" Name="velocity" NumberOfComponents="3" Format="ascii">
          0.000157774 -0.000219811 0 
          7.41709e-05 -0.000288426 0 
          -2.02342e-05 -0.000377979 0 
        </DataArray>
        <DataArray type="Float64" Name="function" NumberOfComponents="1" Format="ascii">
          0 
          0 
          0 
        </DataArray>
        <DataArray type="Float64" Name="initial C_0" NumberOfComponents="1" Format="ascii">
          2.76577e-12 
          -7.59124e-10 
          1.09636e-07 
        </DataArray>
        <DataArray type="Float64" Name="initial position" NumberOfComponents="3" Format="ascii">
          0.56014 0.464805 0 
          0.626064 0.421401 0 
          0.845142 0.342838 0 
        </DataArray>
      </PointData>
    </Piece>
  </UnstructuredGrid>
</VTKFile>
