<?xml version="1.0"?>
<VTKFile type="UnstructuredGrid" version="0.1" byte_order="LittleEndian">
  <UnstructuredGrid>
    <Piece NumberOfPoints="1000" NumberOfCells="1000">
      <Points>
        <DataArray name="Position" type="Float64" NumberOfComponents="3" Format="ascii">
          0.159843 0.00122672 0.0
          0.0752899 0.05804 0.0
          0.204495 0.0770859 0.0
          0.0176627 0.0376323 0.0
          0.139165 0.00471782 0.0
          0.0330028 0.000952237 0.0
          0.204553 0.0386677 0.0
          0.12619 0.0834769 0.0
          0.0198601 0.0718946 0.0
          0.141055 0.00239697 0.0
          0.0488002 0.105483 0.0
          0.454145 0.0998909 0.0
          0.395658 0.0999491 0.0
          0.36313 0.0349906 0.0
          0.395791 0.0735514 0.0
          0.379403 0.101728 0.0
          0.323567 0.0463583 0.0
          0.349715 0.0908448 0.0
          0.472041 0.0427091 0.0
          0.295873 0.0222667 0.0
          0.35509 0.113185 0.0
          0.266199 0.00701054 0.0
          0.288943 0.119639 0.0
          0.257538 0.118788 0.0
          0.117061 0.179567 0.0
          0.212861 0.143091 0.0
          0.0610417 0.13562 0.0
          0.0205211 0.149866 0.0
          0.167617 0.158447 0.0
          0.146087 0.157691 0.0
          0.136988 0.133692 0.0
          0.245025 0.157349 0.0
          0.108754 0.191343 0.0
          0.0702787 0.19586 0.0
          0.230632 0.20262 0.0
          0.147453 0.204801 0.0
          0.151647 0.202539 0.0
          0.119017 0.203961 0.0
          0.133653 0.205364 0.0
          0.123303 0.215038 0.0
          0.102705 0.214452 0.0
          0.0407501 0.216505 0.0
          0.0349216 0.234587 0.0
          0.142861 0.233619 0.0
          0.190162 0.242564 0.0
          0.151671 0.242556 0.0
          0.398184 0.15096 0.0
          0.494894 0.210669 0.0
          0.381578 0.159415 0.0
          0.334528 0.171505 0.0
          0.431206 0.195775 0.0
          0.472473 0.147674 0.0
          0.372027 0.171139 0.0
          0.476945 0.146672 0.0
          0.32014 0.210309 0.0
          0.279285 0.213675 0.0
          0.699474 0.00692384 0.0
          0.741017 0.0825798 0.0
          0.64148 0.0884977 0.0
          0.672789 0.0403619 0.0
          0.681707 0.0513749 0.0
          0.604082 0.104284 0.0
          0.646729 0.0301388 0.0
          0.723273 0.0529611 0.0
          0.598487 0.107231 0.0
          0.595991 0.086857 0.0
          0.58715 0.115092 0.0
          0.577987 0.0160735 0.0
          0.556505 0.0525902 0.0
          0.562669 0.00989814 0.0
          0.543788 0.0680551 0.0
          0.527203 0.0625668 0.0
          0.511344 0.0482192 0.0
          0.914298 0.0579716 0.0
          0.857091 0.0811613 0.0
          0.997305 0.016771 0.0
          0.961493 0.0926737 0.0
          0.991464 0.116424 0.0
          0.856887 0.094845 0.0
          0.918915 0.0588991 0.0
          0.855904 0.00110107 0.0
          0.893826 0.0294584 0.0
          0.956006 0.00474635 0.0
          0.897837 0.0951736 0.0
          0.823307 0.0720931 0.0
          0.797695 0.0673828 0.0
          0.80473 0.092469 0.0
          0.761021 0.0274313 0.0
          0.632652 0.158347 0.0
          0.718134 0.215092 0.0
          0.612489 0.139213 0.0
          0.703547 0.210399 0.0
          0.625241 0.183162 0.0
          0.702259 0.221695 0.0
          0.626167 0.140928 0.0
          0.724088 0.181184 0.0
          0.663332 0.190908 0.0
          0.581246 0.201589 0.0
          0.579386 0.208112 0.0
          0.580517 0.126531 0.0
          0.536884 0.199298 0.0
          0.507389 0.185024 0.0
          0.502279 0.140214 0.0
          0.934294 0.219213 0.0
          0.891926 0.169824 0.0
          0.986972 0.237604 0.0
          0.96819 0.166896 0.0
          0.991253 0.223158 0.0
          0.979316 0.244534 0.0
          0.865377 0.226201 0.0
          0.993163 0.190096 0.0
          0.990831 0.172086 0.0
          0.959185 0.140833 0.0
          0.920285 0.135143 0.0
          0.813357 0.190358 0.0
          0.813277 0.175102 0.0
          0.804533 0.221457 0.0
          0.805979 0.190377 0.0
          0.812349 0.153124 0.0
          0.796801 0.207701 0.0
          0.782675 0.170362 0.0
          0.757117 0.198189 0.0
          0.156651 0.289151 0.0
          0.244601 0.257475 0.0
          0.0724405 0.263001 0.0
          0.127521 0.254988 0.0
          0.231655 0.252569 0.0
          0.140051 0.277517 0.0
          0.0169711 0.299521 0.0
          0.00540983 0.307426 0.0
          0.224203 0.367386 0.0
          0.19393 0.369291 0.0
          0.315142 0.252168 0.0
          0.453242 0.317231 0.0
          0.369182 0.284986 0.0
          0.343168 0.255611 0.0
          0.422293 0.306912 0.0
          0.487095 0.326508 0.0
          0.480209 0.279098 0.0
          0.417973 0.335834 0.0
          0.403573 0.339039 0.0
          0.289994 0.312755 0.0
          0.27595 0.307988 0.0
          0.357218 0.354209 0.0
          0.359051 0.355754 0.0
          0.45435 0.36897 0.0
          0.252646 0.291324 0.0
          0.33709 0.371793 0.0
          0.0856094 0.386406 0.0
          0.0666074 0.382809 0.0
          0.172505 0.389417 0.0
          0.189353 0.375046 0.0
          0.0907652 0.375251 0.0
          0.0925555 0.383566 0.0
          0.0288477 0.399519 0.0
          0.245013 0.418507 0.0
          0.0581906 0.411921 0.0
          0.22327 0.424584 0.0
          0.082518 0.41616 0.0
          0.0798751 0.436974 0.0
          0.0091569 0.444774 0.0
          0.211285 0.449779 0.0
          0.147272 0.445274 0.0
          0.0757702 0.447348 0.0
          0.13606 0.462226 0.0
          0.0382483 0.451024 0.0
          0.0747376 0.471413 0.0
          0.196441 0.486913 0.0
          0.0427639 0.477486 0.0
          0.476623 0.40367 0.0
          0.426154 0.381623 0.0
          0.476764 0.451477 0.0
          0.492002 0.385004 0.0
          0.383488 0.393055 0.0
          0.40268 0.392677 0.0
          0.323777 0.440398 0.0
          0.349054 0.459834 0.0
          0.332171 0.455243 0.0
          0.372121 0.469413 0.0
          0.326778 0.465408 0.0
          0.264946 0.460215 0.0
          0.331866 0.472281 0.0
          0.299167 0.476445 0.0
          0.399311 0.485711 0.0
          0.327347 0.4799 0.0
          0.270237 0.477883 0.0
          0.716879 0.278267 0.0
          0.71804 0.264366 0.0
          0.733198 0.319312 0.0
          0.721814 0.307288 0.0
          0.623576 0.278908 0.0
          0.604612 0.255379 0.0
          0.746804 0.27717 0.0
          0.600218 0.320485 0.0
          0.606916 0.333264 0.0
          0.672624 0.311724 0.0
          0.714978 0.254917 0.0
          0.558077 0.327006 0.0
          0.515084 0.267821 0.0
          0.949824 0.371616 0.0
          0.946269 0.338072 0.0
          0.93203 0.328214 0.0
          0.996091 0.315638 0.0
          0.963055 0.368328 0.0
          0.87612 0.296866 0.0
          0.964506 0.311438 0.0
          0.96674 0.315793 0.0
          0.895132 0.28508 0.0
          0.90442 0.271834 0.0
          0.896925 0.256532 0.0
          0.794848 0.252623 0.0
          0.779915 0.362848 0.0
          0.781888 0.323946 0.0
          0.781814 0.263344 0.0
          0.833706 0.252425 0.0
          0.777502 0.288242 0.0
          0.778252 0.315091 0.0
          0.868758 0.252341 0.0
          0.75846 0.272241 0.0
          0.608401 0.476955 0.0
          0.613513 0.391492 0.0
          0.737538 0.490282 0.0
          0.66891 0.40402 0.0
          0.653778 0.421379 0.0
          0.612137 0.433074 0.0
          0.640602 0.45848 0.0
          0.679971 0.421079 0.0
          0.664988 0.389004 0.0
          0.649123 0.425588 0.0
          0.564135 0.47725 0.0
          0.570769 0.393833 0.0
          0.710474 0.383642 0.0
          0.538281 0.457797 0.0
          0.540574 0.399072 0.0
          0.539305 0.380494 0.0
          0.5267 0.425313 0.0
          0.514831 0.443549 0.0
          0.516161 0.431274 0.0
          0.504989 0.411945 0.0
          0.5047 0.388497 0.0
          0.871372 0.481724 0.0
          0.977155 0.459806 0.0
          0.85929 0.489258 0.0
          0.88928 0.445696 0.0
          0.835743 0.478802 0.0
          0.994729 0.468868 0.0
          0.827542 0.485181 0.0
          0.827001 0.477978 0.0
          0.825245 0.462594 0.0
          0.976801 0.437459 0.0
          0.997639 0.428398 0.0
          0.835557 0.40384 0.0
          0.784232 0.496756 0.0
          0.782151 0.442306 0.0
          0.777028 0.420606 0.0
          0.947468 0.379525 0.0
          0.958344 0.376568 0.0
          0.752094 0.473263 0.0
          1.08413 0.062855 0.0
          1.0594 0.0922528 0.0
          1.18475 0.091825 0.0
          1.12051 0.0947744 0.0
          1.24462 0.00680186 0.0
          1.24993 0.119634 0.0
          1.08767 0.0838953 0.0
          1.06555 0.00314692 0.0
          1.19962 0.0644846 0.0
          1.08049 0.00516007 0.0
          1.04999 0.0400765 0.0
          1.04169 0.0249674 0.0
          1.03352 0.0347959 0.0
          1.03517 0.0979932 0.0
          1.03243 0.0202307 0.0
          1.01748 0.0612737 0.0
          1.00423 0.0781293 0.0
          1.29252 0.0824873 0.0
          1.35012 0.0690572 0.0
          1.29096 0.0297322 0.0
          1.41121 0.0916033 0.0
          1.324 0.0361221 0.0
          1.3138 0.0930096 0.0
          1.43054 0.00524896 0.0
          1.39067 0.0930521 0.0
          1.29066 0.00298388 0.0
          1.41527 0.117275 0.0
          1.47181 0.0556119 0.0
          1.4787 0.0394975 0.0
          1.49224 0.034201 0.0
          1.49895 0.112879 0.0
          1.26853 0.0233627 0.0
          1.2157 0.220436 0.0
          1.06316 0.247628 0.0
          1.24973 0.235308 0.0
          1.06197 0.216571 0.0
          1.08934 0.190463 0.0
          1.07352 0.232792 0.0
          1.10848 0.203494 0.0
          1.24735 0.153604 0.0
          1.04256 0.156099 0.0
          1.03884 0.183476 0.0
          1.02993 0.248821 0.0
          1.21475 0.129441 0.0
          1.27054 0.235239 0.0
[...]
      <PointData Scalars="scalars">
        <DataArray type="Float64" Name="velocity" NumberOfComponents="3" Format="ascii">
          0.13723 -0.0010612 0 
          0.066515 -0.0531674 0 
          0.171632 -0.0629796 0 
          0.0159547 -0.0351327 0 
          0.120402 -0.00415785 0 
          0.0296758 -0.000887954 0 
          0.172432 -0.0316943 0 
          0.10906 -0.0739675 0 
          0.01788 -0.0669846 0 
          0.121952 -0.0021094 0 
          0.0432844 -0.0974132 0 
          0.324621 -0.0461148 0 
          0.296507 -0.055158 0 
          0.281994 -0.0212316 0 
          0.298484 -0.0407665 0 
          0.287678 -0.0586083 0 
          0.2576 -0.0307431 0 
          0.271596 -0.056424 0 
          0.336475 -0.0187359 0 
          0.239895 -0.0156865 0 
          0.2731 -0.069161 0 
          0.21927 -0.00523435 0 
          0.231408 -0.0844009 0 
          0.209747 -0.0889836 0 
          0.0993207 -0.158839 0 
          0.175446 -0.114833 0 
          0.0535991 -0.124466 0 
          0.018252 -0.139 0 
          0.140148 -0.134234 0 
          0.123281 -0.13653 0 
          0.116775 -0.117014 0 
          0.198272 -0.119791 0 
          0.0922373 -0.170001 0 
          0.0605095 -0.177879 0 
          0.184321 -0.156425 0 
          0.122316 -0.175814 0 
          0.125673 -0.173227 0 
          0.100028 -0.179505 0 
          0.111535 -0.178533 0 
          0.102977 -0.188283 0 
          0.086599 -0.190683 0 
          0.035295 -0.198371 0 
          0.0301322 -0.214799 0 
          0.117256 -0.200416 0 
          0.151813 -0.196889 0 
          0.123414 -0.205934 0 
          0.292404 -0.0818206 0 
          0.321293 -0.0799626 0 
          0.282793 -0.0901535 0 
          0.255255 -0.108516 0 
          0.30047 -0.0944629 0 
          0.326192 -0.0631163 0 
          0.276173 -0.0988399 0 
          0.328106 -0.0616686 0 
          0.241663 -0.135701 0 
          0.216274 -0.150271 0 
          0.395606 -0.000597457 0 
          0.39275 -0.00191152 0 
          0.382707 -0.0150617 0 
          0.391702 -0.00505675 0 
          0.392016 -0.00572726 0 
          0.373363 -0.0235577 0 
          0.388463 -0.00497811 0 
          0.395158 -0.00263267 0 
          0.371691 -0.0251169 0 
          0.373779 -0.0207945 0 
          0.367862 -0.028889 0 
          0.374056 -0.00437219 0 
          0.366402 -0.0159342 0 
          0.369873 -0.0029343 0 
          0.361357 -0.0218932 0 
          0.356376 -0.0217873 0 
          0.351724 -0.0180609 0 
          0.377885 0.0129064 0 
          0.386009 0.0115807 0 
          0.356224 0.00564326 0 
          0.362199 0.0264458 0 
          0.349705 0.0377613 0 
          0.384278 0.0134798 0 
          0.376759 0.0134838 0 
          0.390935 0.000157311 0 
          0.383935 0.00575374 0 
          0.369484 0.00133675 0 
          0.377336 0.0189236 0 
          0.390984 0.00686448 0 
          0.393398 0.00395403 0 
          0.38997 0.00634591 0 
          0.397375 0.000146492 0 
          0.368942 -0.0283052 0 
          0.361301 -0.0109523 0 
          0.369307 -0.0293363 0 
          0.362154 -0.0150599 0 
          0.361422 -0.034242 0 
          0.358128 -0.0160783 0 
          0.371572 -0.0267811 0 
          0.372352 -0.00805794 0 
          0.36473 -0.0249148 0 
          0.347557 -0.0502996 0 
          0.345227 -0.0522768 0 
          0.364411 -0.0329401 0 
          0.337034 -0.0631275 0 
          0.331604 -0.0675348 0 
          0.338565 -0.0533869 0 
          0.341366 0.0527991 0 
          0.364147 0.0319242 0 
          0.322198 0.0731941 0 
          0.347321 0.0484991 0 
          0.325581 0.0703695 0 
          0.321937 0.0726861 0 
          0.351036 0.0336362 0 
          0.334312 0.0611064 0 
          0.339412 0.0550863 0 
          0.355313 0.0394848 0 
          0.36612 0.030847 0 
          0.368164 0.0151846 0 
          0.372576 0.0140014 0 
          0.358413 0.0148703 0 
          0.368645 0.013255 0 
          0.378249 0.0121006 0 
          0.363603 0.0118019 0 
          0.375464 0.00637491 0 
          0.367674 0.000442308 0 
          0.123732 -0.241561 0 
          0.188168 -0.191154 0 
          0.0606884 -0.236284 0 
          0.104354 -0.220944 0 
          0.180003 -0.192135 0 
          0.112454 -0.236562 0 
          0.0143769 -0.272581 0 
          0.00459403 -0.279883 0 
          0.157824 -0.270233 0 
          0.139374 -0.285686 0 
          0.232091 -0.161971 0 
          0.273479 -0.131084 0 
          0.252387 -0.157356 0 
          0.246544 -0.153403 0 
          0.267208 -0.142438 0 
          0.278639 -0.116968 0 
          0.296008 -0.107499 0 
          0.254967 -0.154163 0 
          0.248848 -0.16252 0 
          0.206222 -0.206344 0 
          0.199448 -0.210114 0 
          0.226092 -0.19211 0 
          0.226273 -0.191725 0 
          0.250544 -0.143994 0 
          0.188586 -0.210285 0 
          0.212006 -0.209979 0 
          0.0656163 -0.334579 0 
          0.0519293 -0.335771 0 
          0.123206 -0.308151 0 
          0.13569 -0.291455 0 
          0.0699679 -0.324824 0 
          0.0707495 -0.330763 0 
          0.0228313 -0.354615 0 
          0.157298 -0.285933 0 
          0.0445406 -0.359817 0 
          0.144896 -0.302559 0 
          0.06164 -0.357617 0 
          0.0584822 -0.373403 0 
          0.00710145 -0.391779 0 
          0.132605 -0.322513 0 
          0.0998122 -0.354731 0 
          0.0550342 -0.381893 0 
          0.0908939 -0.370215 0 
          0.028697 -0.392752 0 
          0.0527431 -0.39898 0 
          0.116087 -0.349769 0 
          0.0310278 -0.411146 0 
          0.235583 -0.137787 0 
          0.23735 -0.162783 0 
          0.202395 -0.142536 0 
          0.249324 -0.126071 0 
          0.219919 -0.190468 0 
          0.225677 -0.179093 0 
          0.179684 -0.241228 0 
          0.176752 -0.228369 0 
          0.174926 -0.239192 0 
          0.176025 -0.213814 0 
          0.168317 -0.245279 0 
          0.152085 -0.288929 0 
          0.16592 -0.243014 0 
          0.15563 -0.268119 0 
          0.169294 -0.196364 0 
          0.160742 -0.247779 0 
          0.1468 -0.290602 0 
          0.335298 -0.0134321 0 
          0.341803 -0.0126317 0 
          0.313756 -0.0077187 0 
          0.320392 -0.0121416 0 
          0.326867 -0.048852 0 
          0.33392 -0.0526724 0 
          0.33641 -0.00249853 0 
          0.302829 -0.0636248 0 
          0.296556 -0.0620853 0 
          0.315418 -0.0321043 0 
          0.345798 -0.0134068 0 
          0.292782 -0.0833993 0 
          0.309766 -0.0895752 0 
          0.267182 0.0884844 0 
          0.28749 0.081239 0 
          0.29525 0.0735555 0 
          0.288915 0.0971899 0 
          0.267209 0.0939914 0 
          0.319634 0.0466958 0 
          0.297913 0.0835672 0 
          0.295325 0.0853877 0 
          0.322818 0.0521868 0 
          0.327344 0.0534287 0 
          0.334933 0.0482838 0 
          0.346744 0.0135848 0 
          0.285881 0.0122767 0 
          0.310954 0.0118147 0 
          0.342532 0.00961399 0 
          0.344379 0.0265666 0 
          0.330744 0.00892268 0 
          0.316193 0.0100698 0 
          0.340667 0.0382319 0 
          0.338714 0.00162945 0 
          0.183813 -0.0676557 0 
          0.259323 -0.0636843 0 
          0.170404 -0.00378915 0 
          0.252992 -0.0372087 0 
          0.237796 -0.0447548 0 
          0.225659 -0.0658569 0 
          0.203027 -0.0513092 0 
          0.239009 -0.0320382 0 
          0.264591 -0.0387714 0 
          0.233936 -0.0470899 0 
          0.182875 -0.0915572 0 
          0.2537 -0.0853078 0 
          0.270378 -0.0177193 0 
          0.200252 -0.105983 0 
          0.246744 -0.101458 0 
          0.258931 -0.10009 0 
          0.226208 -0.111093 0 
          0.211005 -0.118771 0 
          0.220747 -0.117339 0 
          0.23378 -0.12204 0 
          0.24909 -0.119377 0 
          0.18166 0.0593976 0 
          0.199822 0.113489 0 
          0.173629 0.0534763 0 
          0.216322 0.0670418 0 
          0.184532 0.0416954 0 
          0.191269 0.123837 0 
          0.177629 0.0378155 0 
          0.185324 0.0374402 0 
          0.201185 0.036276 0 
          0.217972 0.111027 0 
          0.222712 0.12071 0 
          0.254099 0.0389191 0 
          0.163898 0.0174665 0 
          0.220886 0.0155085 0 
          0.240738 0.0126404 0 
          0.262511 0.0886433 0 
          0.262858 0.0932277 0 
          0.189142 0.00242251 0 
          0.319081 0.0278895 0 
          0.327204 0.0381503 0 
          0.266183 0.0496585 0 
          0.299322 0.0456486 0 
          0.235118 0.00397436 0 
          0.2247 0.0702961 0 
          0.315756 0.0374903 0 
          0.329483 0.00133665 0 
          0.259963 0.0356623 0 
          0.322906 0.0022806 0 
          0.335157 0.0162014 0 
          0.339143 0.00985094 0 
          0.342075 0.0133503 0 
          0.336372 0.0375316 0 
          0.342988 0.0077469 0 
          0.346747 0.0221403 0 
          0.350128 0.0267875 0 
          0.201072 0.0499846 0 
          0.16586 0.0421724 0 
          0.205058 0.0179789 0 
          0.126568 0.0543 0 
          0.183944 0.022047 0 
          0.186611 0.0567986 0 
          0.119728 0.0030347 0 
          0.13887 0.056005 0 
          0.205695 0.00180288 0 
          0.121144 0.0693862 0 
          0.093768 0.0304868 0 
          0.0907025 0.0213718 0 
          0.0831697 0.018034 0 
          0.0721775 0.0590492 0 
          0.219615 0.0139437 0 
          0.228391 0.123865 0 
          0.294166 0.100458 0 
          0.20472 0.138125 0 
          0.303394 0.0883306 0 
          0.298481 0.0843413 0 
          0.294496 0.0977584 0 
          0.28715 0.0941816 0 
          0.221715 0.0900157 0 
          0.32461 0.0608172 0 
          0.32031 0.0701676 0 
          0.305483 0.0904177 0 
          0.24483 0.0729534 0 
          0.191366 0.141078 0 
          0.0920721 0.126268 0 
          0.191218 0.137698 0 
          0.149953 0.150323 0 
          0.15646 0.118121 0 
          0.178681 0.0958602 0 
          0.0849497 0.110911 0 
          0.0816167 0.141648 0 
          0.15098 0.0907776 0 
          0.167909 0.128808 0 
          0.0769858 0.102128 0 
          0.0574082 0.13893 0 
          0.0657253 0.107154 0 
          0.16807 0.0850615 0 
          0.121028 0.0777948 0 
          0.217585 0.0931008 0 
          0.0543203 0.0552117 0 
          0.0720115 0.026114 0 
          0.0553819 0.040666 0 
          0.0440979 0.0234191 0 
          0.055158 0.00768738 0 
          0.0395537 0.0166763 0 
          0.00930915 0.010799 0 
          0.0306008 0.0311031 0 
          0.0206251 0.00430056 0 
          0.05255 0.0484265 0 
          0.0154322 0.00442715 0 
          0.0130712 0.0353633 0 
          0.0445828 0.00283216 0 
          0.0544551 0.0129313 0 
          0.00342927 0.00453374 0 
          0.0633914 0.042844 0 
          0.0159782 0.0341301 0 
          0.00112036 0.0289357 0 
          0.00190764 0.0154501 0 
          0.0452009 0.0279849 0 
          0.0445329 0.0253753 0 
          -0.00458932 0.00706962 0 
          -0.00531114 -0.00675886 0 
          -0.0112547 0.000309481 0 
          -0.0111783 -0.00394145 0 
          -0.00545751 -0.0110823 0 
          -0.0140959 -0.00686665 0 
          -0.0138562 -0.00321949 0 
          -0.00775245 0.000528773 0 
          -0.0113072 -0.00158664 0 
          -0.00727366 -0.00733852 0 
          -0.0104261 -0.00209623 0 
          -0.000906519 -0.00352244 0 
          -0.010624 0.00813885 0 
          -0.0127306 0.00385137 0 
          -0.0126547 -0.00821523 0 
          -0.00722562 -0.00146896 0 
          -0.0117583 0.00134772 0 
          -0.0105719 -0.00689526 0 
          -0.0117287 -0.00235449 0 
          -0.0149664 0.0015307 0 
          -0.0162917 -0.00500609 0 
          -0.0165689 0.00788155 0 
          -0.008061 0.0331055 0 
          0.00943011 0.079848 0 
          0.0406108 0.0604177 0 
          -0.031388 0.042859 0 
          0.0455781 0.108499 0 
          0.036224 0.120664 0 
          0.00403242 0.0435527 0 
          0.0368428 0.116756 0 
          -0.0100119 0.0643718 0 
          0.0165419 0.0630849 0 
          -0.00743389 0.0864453 0 
          -0.00602914 0.0414509 0 
          -0.00727319 0.0499425 0 
          0.00783359 0.0862976 0 
          -0.0134938 0.0631808 0 
          -0.0306692 0.0552665 0 
          -0.0272772 0.0661758 0 
          -0.0347843 0.0537811 0 
          -0.0197576 0.0215601 0 
          -0.0152996 0.0181385 0 
          -0.029686 0.0243107 0 
          -0.00909963 -0.023946 0 
          -0.0264665 0.00243441 0 
          -0.0362566 0.0226853 0 
          -0.0183114 0.0120336 0 
          -0.0319565 -0.00819043 0 
          -0.0299792 0.0162162 0 
          -0.0267514 0.0146957 0 
          -0.028013 -0.00606601 0 
          -0.0104172 -0.034195 0 
          -0.0377594 0.00313353 0 
          -0.0249997 -0.0258269 0 
          -0.0402587 0.00109028 0 
          -0.00142169 -0.0402047 0 
          -0.0202194 -0.0358202 0 
          0.224167 0.169992 0 
          0.213794 0.172722 0 
          0.209265 0.183366 0 
          0.225263 0.169424 0 
          0.264168 0.131483 0 
          0.211667 0.165863 0 
          0.20832 0.163836 0 
          0.255771 0.127653 0 
          0.258808 0.132136 0 
          0.290929 0.102765 0 
          0.199465 0.153656 0 
          0.204393 0.15281 0 
          0.2211 0.144352 0 
          0.230909 0.136901 0 
          0.254048 0.127787 0 
          0.135969 0.192124 0 
          0.108436 0.22327 0 
          0.0601165 0.188767 0 
          0.170617 0.186332 0 
          0.0767713 0.212329 0 
          0.165819 0.200372 0 
          0.112048 0.201364 0 
          0.0360618 0.22161 0 
          0.128744 0.224386 0 
          0.113213 0.180378 0 
          0.17159 0.177736 0 
          0.0362977 0.166302 0 
          0.161118 0.215626 0 
          0.0860553 0.150121 0 
          0.0625673 0.141342 0 
          0.181862 0.186021 0 
          0.134197 0.260462 0 
          0.139733 0.251283 0 
          0.176237 0.151585 0 
          0.182803 0.177199 0 
          0.157668 0.204379 0 
          0.160188 0.217765 0 
          0.169665 0.219941 0 
          0.21139 0.15907 0 
          0.188409 0.196724 0 
          0.169705 0.223291 0 
          0.22604 0.141964 0 
          0.204418 0.177177 0 
          0.224546 0.148661 0 
          0.203537 0.188597 0 
          0.234354 0.131753 0 
          0.238153 0.138508 0 
          0.17142 0.219913 0 
          0.203312 0.130329 0 
          0.216214 0.126535 0 
          0.218315 0.174637 0 
          -0.00900738 0.310206 0 
          0.0678052 0.310166 0 
          0.0543822 0.295311 0 
          0.0303665 0.300903 0 
          0.026278 0.316287 0 
          0.0815487 0.300395 0 
          0.0435187 0.266499 0 
          0.0848095 0.267507 0 
          0.040394 0.259231 0 
          0.139084 0.249306 0 
          0.0730485 0.260802 0 
          0.105972 0.247543 0 
          0.0561918 0.244426 0 
          0.152153 0.227516 0 
          -0.0233736 0.138225 0 
          -0.0381802 0.106755 0 
          -0.0662486 0.10891 0 
          -0.0497965 0.056 0 
          -0.0394972 0.0624957 0 
          -0.0453482 0.0963458 0 
          0.0152917 0.151942 0 
          -0.054581 0.0733847 0 
          -0.0626937 0.115943 0 
          -0.0418088 0.041565 0 
          -0.0627589 0.047809 0 
          -0.084107 0.041425 0 
          -0.0402042 -0.0253552 0 
          -0.0692298 0.0147661 0 
          -0.0425432 -0.0129759 0 
          -0.0511604 -0.00764774 0 
          -0.0515552 -0.0352608 0 
          -0.0578239 -0.0146511 0 
          -0.0588016 0.0198939 0 
          -0.0245935 -0.0497532 0 
          -0.013464 -0.0506224 0 
          -0.0563683 -0.020915 0 
          -0.0524518 -0.0314107 0 
          -0.00210314 -0.0452651 0 
          -0.0480071 0.0152479 0 
          -0.0656913 -0.0135066 0 
          -0.0725162 -0.00590754 0 
          -0.0785078 0.0219688 0 
          -0.0421324 -0.0710166 0 
          -0.0699913 -0.0354534 0 
          -0.0153108 -0.0849523 0 
          -0.0716552 -0.0386 0 
          -0.104469 0.109457 0 
          -0.0245795 0.231489 0 
          -0.105985 0.0939805 0 
          -0.103384 0.0756974 0 
          -0.0776378 0.213357 0 
          -0.0558801 0.155651 0 
          -0.0879739 0.0265676 0 
          -0.127442 0.0223432 0 
          -0.0162326 0.194293 0 
          -0.095076 0.0247988 0 
          -0.0609163 -0.0805061 0 
          -0.0838897 -0.0467013 0 
          -0.0865466 -0.0206287 0 
          -0.0531762 -0.0734832 0 
          -0.0852953 -0.0183096 0 
          -0.0940578 -0.0407382 0 
          -0.019101 -0.102322 0 
          -0.0948862 -0.0138056 0 
          -0.0357109 -0.139151 0 
          -0.0516895 -0.146771 0 
          -0.11367 -0.0814207 0 
          -0.136967 -0.00517105 0 
          -0.0834131 -0.126411 0 
          -0.0902666 -0.120275 0 
          0.10469 -0.368014 0 
          0.103363 -0.370203 0 
          0.0590623 -0.438429 0 
          0.0488771 -0.451594 0 
          0.00850949 -0.482275 0 
          0.0562798 -0.447306 0 
          0.0802097 -0.391357 0 
          0.0708692 -0.42458 0 
          0.0719447 -0.422874 0 
          0.0784709 -0.397635 0 
          0.0448136 -0.464204 0 
          0.0811844 -0.369204 0 
          0.0748273 -0.378278 0 
          0.00786954 -0.499675 0 
          0.0638386 -0.367754 0 
          0.0949847 -0.129849 0 
          0.115749 -0.180284 0 
          0.105869 -0.173572 0 
          0.104942 -0.22131 0 
          0.103088 -0.261248 0 
          0.109741 -0.293902 0 
          0.0947447 -0.27897 0 
          0.0876341 -0.307353 0 
          0.0968191 -0.316281 0 
          0.071908 -0.232822 0 
          0.0220344 -0.114463 0 
          0.0724913 -0.239303 0 
          0.0449854 -0.152817 0 
          0.045113 -0.340549 0 
          0.0442975 -0.386705 0 
          0.00551667 -0.523951 0 
          0.0183924 -0.516399 0 
          0.0155256 -0.528294 0 
          0.0122565 -0.461561 0 
          0.0144735 -0.510106 0 
          0.000744275 -0.559223 0 
          0.0098755 -0.539747 0 
          0.00907007 -0.542715 0 
          0.00581118 -0.553532 0 
          0.00555242 -0.554253 0 
          0.019575 -0.149156 0 
          0.0179117 -0.215276 0 
          -0.116016 -0.115372 0 
          -0.0535719 -0.160918 0 
          -0.0771649 -0.130138 0 
          -0.0174572 -0.182179 0 
          -0.116202 -0.0997818 0 
          -0.104131 -0.163546 0 
          -0.0364496 -0.250167 0 
          -0.119213 -0.159195 0 
          -0.19171 -0.07978 0 
          -0.0872057 -0.210331 0 
          -0.209941 -0.0815025 0 
          0.0756318 -0.0494125 0 
          0.113231 -0.003919 0 
          0.031094 -0.0767963 0 
          0.0504639 -0.0564377 0 
          -0.00541133 -0.0550411 0 
          0.0762175 -0.0450316 0 
          0.050041 -0.0325205 0 
          0.0644146 -0.0943526 0 
          0.144708 -0.0113911 0 
          0.106345 -0.112221 0 
          0.0177079 -0.102812 0 
          0.0951832 0.0235033 0 
          0.0709761 0.0428837 0 
          0.0665916 0.0347554 0 
          0.0222794 0.0794845 0 
          0.0169874 0.0459606 0 
          0.0146399 0.0451456 0 
          0.103106 0.0599993 0 
          0.097754 0.0593033 0 
          0.124016 0.049668 0 
          0.0877073 0.0151565 0 
          0.145233 0.0835102 0 
          0.150769 0.0832215 0 
          0.143222 0.124444 0 
          0.144159 0.104788 0 
          0.157168 0.104227 0 
          0.10324 0.00354252 0 
          -0.204089 -0.0411539 0 
          -0.0862514 -0.0469012 0 
          -0.0887072 -0.0388202 0 
          -0.116959 -0.00176285 0 
          -0.200931 -0.00429587 0 
          -0.0451495 -0.0678652 0 
          -0.179004 -0.0257703 0 
          -0.0852628 -0.0676808 0 
          -0.205062 -0.0470864 0 
          -0.252119 -0.022278 0 
          -0.237995 -0.0349411 0 