<?xml version="1.0"?>
<VTKFile type="UnstructuredGrid" version="0.1" byte_order="LittleEndian">
  <UnstructuredGrid>
    <Piece NumberOfPoints="1000" NumberOfCells="1000">
      <Points>
        <DataArray name="Position" type="Float64" NumberOfComponents="3" Format="ascii">
          0.232316 0.0271547 0.0
          0.123543 0.00156735 0.0
          0.057658 0.0752713 0.0
          0.158947 0.0972243 0.0
          0.208229 0.00865782 0.0
          0.0134386 0.0490343 0.0
          0.107313 0.00605592 0.0
          0.0251516 0.00123998 0.0
          0.158915 0.0487873 0.0
          0.0972209 0.107378 0.0
          0.0151167 0.0936572 0.0
          0.108794 0.00307563 0.0
          0.367731 0.112523 0.0
          0.31648 0.116107 0.0
          0.449046 0.0728558 0.0
          0.288241 0.0413572 0.0
          0.498847 0.0900506 0.0
          0.480919 0.0168649 0.0
          0.418834 0.052639 0.0
          0.31634 0.0854798 0.0
          0.460803 0.0558833 0.0
          0.302536 0.119137 0.0
          0.490883 0.119914 0.0
          0.466384 0.0104842 0.0
          0.255151 0.0558164 0.0
          0.433568 0.0676518 0.0
          0.277247 0.107964 0.0
          0.383156 0.0476886 0.0
          0.0903235 0.231141 0.0
          0.0372785 0.137141 0.0
          0.165901 0.179843 0.0
          0.0467182 0.176091 0.0
          0.227108 0.146124 0.0
          0.0156358 0.19515 0.0
          0.201613 0.146984 0.0
          0.130013 0.201741 0.0
          0.113016 0.201839 0.0
          0.105777 0.171526 0.0
          0.191832 0.195473 0.0
          0.0838733 0.24662 0.0
          0.488118 0.210246 0.0
          0.319416 0.174907 0.0
          0.486644 0.217232 0.0
          0.417952 0.201718 0.0
          0.407471 0.231037 0.0
          0.305251 0.186196 0.0
          0.484785 0.132337 0.0
          0.265511 0.204847 0.0
          0.349497 0.222522 0.0
          0.281989 0.134111 0.0
          0.385007 0.164476 0.0
          0.445934 0.213436 0.0
          0.297302 0.200742 0.0
          0.38902 0.162958 0.0
          0.411913 0.153586 0.0
          0.601052 0.00674376 0.0
          0.644926 0.078423 0.0
          0.733651 0.0652062 0.0
          0.543347 0.089238 0.0
          0.574042 0.03995 0.0
          0.665502 0.0257444 0.0
          0.583171 0.0505725 0.0
          0.70543 0.0618718 0.0
          0.506991 0.107555 0.0
          0.713525 0.0845496 0.0
          0.547872 0.0303108 0.0
          0.625928 0.0508409 0.0
          0.501635 0.110967 0.0
          0.978144 0.0286221 0.0
          0.836558 0.0499728 0.0
          0.844855 0.116173 0.0
          0.980845 0.0805688 0.0
          0.998384 0.0328103 0.0
          0.976736 0.0166464 0.0
          0.771554 0.0720262 0.0
          0.934161 0.0139632 0.0
          0.892198 0.078245 0.0
          0.890465 0.119018 0.0
          0.928281 0.0971551 0.0
          0.771559 0.0841783 0.0
          0.841913 0.0506626 0.0
          0.942983 0.0648978 0.0
          0.958815 0.0506644 0.0
          0.769594 0.000977537 0.0
          0.81276 0.0256447 0.0
          0.988093 0.0204873 0.0
          0.884976 0.00401544 0.0
          0.81812 0.0826995 0.0
          0.624636 0.245237 0.0
          0.536385 0.160334 0.0
          0.691714 0.157734 0.0
          0.625494 0.20672 0.0
          0.72593 0.173094 0.0
          0.708655 0.190676 0.0
          0.725213 0.159239 0.0
          0.515995 0.142755 0.0
          0.610163 0.203971 0.0
          0.717778 0.202377 0.0
          0.530047 0.186165 0.0
          0.695718 0.243739 0.0
          0.665565 0.18622 0.0
          0.717848 0.173857 0.0
          0.723408 0.13934 0.0
          0.609455 0.215031 0.0
          0.529437 0.143314 0.0
          0.709068 0.232097 0.0
          0.630032 0.173622 0.0
          0.568277 0.189625 0.0
          0.978934 0.20497 0.0
          0.864008 0.187296 0.0
          0.813239 0.147988 0.0
          0.790718 0.222532 0.0
          0.92679 0.198688 0.0
          0.901826 0.140534 0.0
          0.987336 0.150687 0.0
          0.93127 0.186295 0.0
          0.918015 0.20509 0.0
          0.822855 0.223053 0.0
          0.785507 0.199828 0.0
          0.991116 0.128054 0.0
          0.822546 0.248115 0.0
          0.932296 0.158555 0.0
          0.832294 0.235519 0.0
          0.92892 0.143646 0.0
          0.974913 0.242385 0.0
          0.751599 0.226835 0.0
          0.0953896 0.276276 0.0
          0.200528 0.358662 0.0
          0.122575 0.367756 0.0
          0.148724 0.306195 0.0
          0.220431 0.374885 0.0
          0.220467 0.261244 0.0
          0.114356 0.261805 0.0
          0.0539508 0.253861 0.0
          0.0792406 0.276575 0.0
          0.193019 0.318693 0.0
          0.0558498 0.340341 0.0
          0.0990017 0.326977 0.0
          0.0919651 0.262324 0.0
          0.0267354 0.304895 0.0
          0.182378 0.314249 0.0
          0.110943 0.298751 0.0
          0.0311935 0.281354 0.0
          0.103475 0.263337 0.0
          0.109169 0.35459 0.0
          0.117656 0.25867 0.0
          0.118009 0.309447 0.0
          0.180743 0.252694 0.0
          0.251196 0.30272 0.0
          0.375798 0.353227 0.0
          0.298777 0.332451 0.0
          0.275055 0.302712 0.0
          0.347018 0.347741 0.0
          0.474928 0.343169 0.0
          0.429167 0.289367 0.0
          0.407785 0.356591 0.0
          0.254256 0.252453 0.0
          0.397621 0.307287 0.0
          0.0672799 0.496485 0.0
          0.232402 0.378092 0.0
          0.0521153 0.493424 0.0
          0.0130195 0.38915 0.0
          0.137945 0.489809 0.0
          0.00414567 0.399531 0.0
          0.151309 0.469764 0.0
          0.179893 0.454687 0.0
          0.154868 0.462074 0.0
          0.0712376 0.48205 0.0
          0.0727924 0.49232 0.0
          0.292797 0.412739 0.0
          0.49559 0.407975 0.0
          0.450254 0.470366 0.0
          0.406993 0.439378 0.0
          0.276554 0.436599 0.0
          0.294533 0.414085 0.0
          0.357282 0.427861 0.0
          0.415236 0.487707 0.0
          0.449214 0.457851 0.0
          0.332707 0.386589 0.0
          0.467241 0.419954 0.0
          0.418848 0.416665 0.0
          0.319886 0.449651 0.0
          0.381742 0.408272 0.0
          0.463285 0.401504 0.0
          0.435162 0.441128 0.0
          0.345372 0.380227 0.0
          0.475898 0.478705 0.0
          0.431344 0.417369 0.0
          0.458288 0.449403 0.0
          0.337196 0.444892 0.0
          0.628312 0.26725 0.0
          0.702968 0.335847 0.0
          0.633206 0.368616 0.0
          0.628465 0.253818 0.0
          0.700841 0.299623 0.0
          0.648995 0.303532 0.0
          0.635971 0.294074 0.0
          0.692947 0.267359 0.0
          0.534073 0.282728 0.0
          0.513744 0.262061 0.0
          0.671433 0.255332 0.0
          0.659488 0.261671 0.0
          0.515005 0.328505 0.0
          0.52293 0.340021 0.0
          0.696106 0.292055 0.0
          0.586028 0.306737 0.0
          0.983498 0.33517 0.0
          0.891955 0.315921 0.0
          0.885035 0.287656 0.0
          0.867839 0.280948 0.0
          0.941843 0.263225 0.0
          0.906974 0.311405 0.0
          0.902235 0.319036 0.0
          0.929592 0.368492 0.0
          0.964129 0.363144 0.0
          0.801873 0.260833 0.0
          0.994622 0.298534 0.0
          0.90432 0.262887 0.0
          0.907231 0.266341 0.0
          0.952788 0.357919 0.0
          0.767671 0.362598 0.0
          0.88996 0.323016 0.0
          0.548624 0.480539 0.0
          0.536957 0.396339 0.0
          0.707804 0.389677 0.0
          0.68061 0.46309 0.0
          0.594068 0.396645 0.0
          0.729569 0.458479 0.0
          0.581891 0.416613 0.0
          0.542829 0.437262 0.0
          0.576188 0.455243 0.0
          0.608121 0.410599 0.0
          0.587784 0.383023 0.0
          0.578019 0.421695 0.0
          0.505412 0.491413 0.0
          0.691708 0.443912 0.0
          0.716772 0.408632 0.0
          0.667792 0.487757 0.0
          0.872313 0.443007 0.0
          0.818188 0.425489 0.0
          0.968986 0.377065 0.0
          0.806916 0.474957 0.0
          0.932583 0.387592 0.0
          0.833251 0.485814 0.0
          0.956328 0.43824 0.0
          0.806547 0.434749 0.0
          0.832994 0.489678 0.0
          0.832059 0.389925 0.0
          0.779599 0.4303 0.0
          0.953849 0.392754 0.0
          0.772132 0.437894 0.0
          0.770208 0.431455 0.0
          0.917128 0.44217 0.0
          0.765575 0.417839 0.0
          0.914383 0.43134 0.0
          0.87376 0.447365 0.0
          1.20243 0.10509 0.0
          1.04058 0.05109 0.0
          1.01051 0.0753554 0.0
          1.1648 0.0742945 0.0
          1.08577 0.0766826 0.0
          1.23782 0.00555676 0.0
          1.24558 0.0978144 0.0
          1.04518 0.0681509 0.0
          1.01741 0.00256697 0.0
          1.18276 0.0522544 0.0
          1.03579 0.00419693 0.0
          1.2971 0.0683602 0.0
          1.26729 0.0192071 0.0
          1.36561 0.0586269 0.0
          1.43873 0.114923 0.0
          1.29466 0.0246317 0.0
          1.43658 0.080285 0.0
          1.3344 0.0303158 0.0
          1.32289 0.0777132 0.0
          1.45759 0.00465433 0.0
          1.41311 0.0806262 0.0
          1.29421 0.00247215 0.0
          1.44173 0.10303 0.0
          1.34863 0.116869 0.0
          1.18617 0.202929 0.0
          1.05932 0.24608 0.0
          1.20616 0.178956 0.0
          1.01952 0.202136 0.0
          1.20034 0.243925 0.0
          1.24869 0.192325 0.0
          1.2471 0.214498 0.0
          1.01684 0.176815 0.0
          1.04959 0.154672 0.0
          1.03162 0.189601 0.0
          1.07354 0.164828 0.0
          1.20354 0.210022 0.0
          1.24318 0.125503 0.0
          1.09897 0.225103 0.0
          1.21323 0.237025 0.0
          1.12925 0.205084 0.0
          1.2363 0.215338 0.0
          1.27439 0.193403 0.0
          1.46567 0.191067 0.0
          1.27702 0.188564 0.0
          1.34888 0.204559 0.0
          1.4611 0.223763 0.0
          1.39556 0.249093 0.0
[...]
      <PointData Scalars="scalars">
        <DataArray type="Float64" Name="velocity" NumberOfComponents="3" Format="ascii">
          0 0 0 
          0 0 0 
          0 0 0 
          0 0 0 
          0 0 0 
          0 0 0 
          0 0 0 
          0 0 0 
          0 0 0 
          0 0 0 
          0 0 0 
          0 0 0 
          0 0 0 
          0 0 0 
          0 0 0 
          0 0 0 
          0 0 0 
          0 0 0 
          0 0 0 
          0 0 0 
          0 0 0 
          0 0 0 
          0 0 0 
          0 0 0 
          0 0 0 
          0 0 0 
          0 0 0 
          0 0 0 
          0 0 0 
          0 0 0 
          0 0 0 
          0 0 0 
          0 0 0 
          0 0 0 
          0 0 0 
          0 0 0 
          0 0 0 
          0 0 0 
          0 0 0 
          0 0 0 
          0 0 0 
          0 0 0 
          0 0 0 
          0 0 0 
          0 0 0 
          0 0 0 
          0 0 0 
          0 0 0 
          0 0 0 
          0 0 0 
          0 0 0 
          0 0 0 
          0 0 0 
          0 0 0 
          0 0 0 
          0 0 0 
          0 0 0 
          0 0 0 
          0 0 0 
          0 0 0 
          0 0 0 
          0 0 0 
          0 0 0 
          0 0 0 
          0 0 0 
          0 0 0 
          0 0 0 
          0 0 0 
          0 0 0 
          0 0 0 
          0 0 0 
          0 0 0 
          0 0 0 
          0 0 0 
          0 0 0 
          0 0 0 
          0 0 0 
          0 0 0 
          0 0 0 
          0 0 0 
          0 0 0 
          0 0 0 
          0 0 0 
          0 0 0 
          0 0 0 
          0 0 0 
          0 0 0 
          0 0 0 
          0 0 0 
          0 0 0 
          0 0 0 
          0 0 0 
          0 0 0 
          0 0 0 
          0 0 0 
          0 0 0 
          0 0 0 
          0 0 0 
          0 0 0 
          0 0 0 
          0 0 0 
          0 0 0 
          0 0 0 
          0 0 0 
          0 0 0 
          0 0 0 
          0 0 0 
          0 0 0 
          0 0 0 
          0 0 0 
          0 0 0 
          0 0 0 
          0 0 0 
          0 0 0 
          0 0 0 
          0 0 0 
          0 0 0 
          0 0 0 
          0 0 0 
          0 0 0 
          0 0 0 
          0 0 0 
          0 0 0 
          0 0 0 
          0 0 0 
          0 0 0 
          0 0 0 
          0 0 0 
          0 0 0 
          0 0 0 
          0 0 0 
          0 0 0 
          0 0 0 
          0 0 0 
          0 0 0 
          0 0 0 
          0 0 0 
          0 0 0 
          0 0 0 
          0 0 0 
          0 0 0 
          0 0 0 
          0 0 0 
          0 0 0 
          0 0 0 
          0 0 0 
          0 0 0 
          0 0 0 
          0 0 0 
          0 0 0 
          0 0 0 
          0 0 0 
          0 0 0 
          0 0 0 
          0 0 0 
          0 0 0 
          0 0 0 
          0 0 0 
          0 0 0 
          0 0 0 
          0 0 0 
          0 0 0 
          0 0 0 
          0 0 0 
          0 0 0 
          0 0 0 
          0 0 0 
          0 0 0 
          0 0 0 
          0 0 0 
          0 0 0 
          0 0 0 
          0 0 0 
          0 0 0 
          0 0 0 
          0 0 0 
          0 0 0 
          0 0 0 
          0 0 0 
          0 0 0 
          0 0 0 
          0 0 0 
          0 0 0 
          0 0 0 
          0 0 0 
          0 0 0 
          0 0 0 
          0 0 0 
          0 0 0 
          0 0 0 
          0 0 0 
          0 0 0 
          0 0 0 
          0 0 0 
          0 0 0 
          0 0 0 
          0 0 0 
          0 0 0 
          0 0 0 
          0 0 0 
          0 0 0 
          0 0 0 
          0 0 0 
          0 0 0 
          0 0 0 
          0 0 0 
          0 0 0 
          0 0 0 
          0 0 0 
          0 0 0 
          0 0 0 
          0 0 0 
          0 0 0 
          0 0 0 
          0 0 0 
          0 0 0 
          0 0 0 
          0 0 0 
          0 0 0 
          0 0 0 
          0 0 0 
          0 0 0 
          0 0 0 
          0 0 0 
          0 0 0 
          0 0 0 
          0 0 0 
          0 0 0 
          0 0 0 
          0 0 0 
          0 0 0 
          0 0 0 
          0 0 0 
          0 0 0 
          0 0 0 
          0 0 0 
          0 0 0 
          0 0 0 
          0 0 0 
          0 0 0 
          0 0 0 
          0 0 0 
          0 0 0 
          0 0 0 
          0 0 0 
          0 0 0 
          0 0 0 
          0 0 0 
          0 0 0 
          0 0 0 
          0 0 0 
          0 0 0 
          0 0 0 
          0 0 0 
          0 0 0 
          0 0 0 
          0 0 0 
          0 0 0 
          0 0 0 
          0 0 0 
          0 0 0 
          0 0 0 
          0 0 0 
          0 0 0 
          0 0 0 
          0 0 0 
          0 0 0 
          0 0 0 
          0 0 0 
          0 0 0 
          0 0 0 
          0 0 0 
          0 0 0 
          0 0 0 
          0 0 0 
          0 0 0 
          0 0 0 
          0 0 0 
          0 0 0 
          0 0 0 
          0 0 0 
          0 0 0 
          0 0 0 
          0 0 0 
          0 0 0 
          0 0 0 
          0 0 0 
          0 0 0 
          0 0 0 
          0 0 0 
          0 0 0 
          0 0 0 
          0 0 0 
          0 0 0 
          0 0 0 
          0 0 0 
          0 0 0 
          0 0 0 
          0 0 0 
          0 0 0 
          0 0 0 
          0 0 0 
          0 0 0 
          0 0 0 
          0 0 0 
          0 0 0 
          0 0 0 
          0 0 0 
          0 0 0 
          0 0 0 
          0 0 0 
          0 0 0 
          0 0 0 
          0 0 0 
          0 0 0 
          0 0 0 
          0 0 0 
          0 0 0 
          0 0 0 
          0 0 0 
          0 0 0 
          0 0 0 
          0 0 0 
          0 0 0 
          0 0 0 
          0 0 0 
          0 0 0 
          0 0 0 
          0 0 0 
          0 0 0 
          0 0 0 
          0 0 0 
          0 0 0 
          0 0 0 
          0 0 0 
          0 0 0 
          0 0 0 
          0 0 0 
          0 0 0 
          0 0 0 
          0 0 0 
          0 0 0 
          0 0 0 
          0 0 0 
          0 0 0 
          0 0 0 
          0 0 0 
          0 0 0 
          0 0 0 
          0 0 0 
          0 0 0 
          0 0 0 
          0 0 0 
          0 0 0 
          0 0 0 
          0 0 0 
          0 0 0 
          0 0 0 
          0 0 0 
          0 0 0 
          0 0 0 
          0 0 0 
          0 0 0 
          0 0 0 
          0 0 0 
          0 0 0 
          0 0 0 
          0 0 0 
          0 0 0 
          0 0 0 
          0 0 0 
          0 0 0 
          0 0 0 
          0 0 0 
          0 0 0 
          0 0 0 
          0 0 0 
          0 0 0 
          0 0 0 
          0 0 0 
          0 0 0 
          0 0 0 
          0 0 0 
          0 0 0 
          0 0 0 
          0 0 0 
          0 0 0 
          0 0 0 
          0 0 0 
          0 0 0 
          0 0 0 
          0 0 0 
          0 0 0 
          0 0 0 
          0 0 0 
          0 0 0 
          0 0 0 
          0 0 0 
          0 0 0 
          0 0 0 
          0 0 0 
          0 0 0 
          0 0 0 
          0 0 0 
          0 0 0 
          0 0 0 
          0 0 0 
          0 0 0 
          0 0 0 
          0 0 0 
          0 0 0 
          0 0 0 
          0 0 0 
          0 0 0 
          0 0 0 
          0 0 0 
          0 0 0 
          0 0 0 
          0 0 0 
          0 0 0 
          0 0 0 
          0 0 0 
          0 0 0 
          0 0 0 
          0 0 0 
          0 0 0 
          0 0 0 
          0 0 0 
          0 0 0 
          0 0 0 
          0 0 0 
          0 0 0 
          0 0 0 
          0 0 0 
          0 0 0 
          0 0 0 
          0 0 0 
          0 0 0 
          0 0 0 
          0 0 0 
          0 0 0 
          0 0 0 
          0 0 0 
          0 0 0 
          0 0 0 
          0 0 0 
          0 0 0 
          0 0 0 
          0 0 0 
          0 0 0 
          0 0 0 
          0 0 0 
          0 0 0 
          0 0 0 
          0 0 0 
          0 0 0 
          0 0 0 
          0 0 0 
          0 0 0 
          0 0 0 
          0 0 0 
          0 0 0 
          0 0 0 
          0 0 0 
          0 0 0 
          0 0 0 
          0 0 0 
          0 0 0 
          0 0 0 
          0 0 0 
          0 0 0 
          0 0 0 
          0 0 0 
          0 0 0 
          0 0 0 
          0 0 0 
          0 0 0 
          0 0 0 
          0 0 0 
          0 0 0 
          0 0 0 
          0 0 0 
          0 0 0 
          0 0 0 
          0 0 0 
          0 0 0 
          0 0 0 
          0 0 0 
          0 0 0 
          0 0 0 
          0 0 0 
          0 0 0 
          0 0 0 
          0 0 0 
          0 0 0 
          0 0 0 
          0 0 0 
          0 0 0 
          0 0 0 
          0 0 0 
          0 0 0 
          0 0 0 
          0 0 0 
          0 0 0 
          0 0 0 
          0 0 0 
          0 0 0 
          0 0 0 
          0 0 0 
          0 0 0 
          0 0 0 
          0 0 0 
          0 0 0 
          0 0 0 
          0 0 0 
          0 0 0 
          0 0 0 
          0 0 0 
          0 0 0 
          0 0 0 
          0 0 0 
          0 0 0 
          0 0 0 
          0 0 0 
          0 0 0 
          0 0 0 
          0 0 0 
          0 0 0 
          0 0 0 
          0 0 0 
          0 0 0 
          0 0 0 
          0 0 0 
          0 0 0 
          0 0 0 
          0 0 0 
          0 0 0 
          0 0 0 
          0 0 0 
          0 0 0 
          0 0 0 
          0 0 0 
          0 0 0 
          0 0 0 
          0 0 0 
          0 0 0 
          0 0 0 
          0 0 0 
          0 0 0 
          0 0 0 
          0 0 0 
          0 0 0 
          0 0 0 
          0 0 0 
          0 0 0 
          0 0 0 
          0 0 0 
          0 0 0 
          0 0 0 
          0 0 0 
          0 0 0 
          0 0 0 
          0 0 0 
          0 0 0 
          0 0 0 
          0 0 0 
          0 0 0 
          0 0 0 
          0 0 0 
          0 0 0 
          0 0 0 
          0 0 0 
          0 0 0 
          0 0 0 
          0 0 0 
          0 0 0 
          0 0 0 
          0 0 0 
          0 0 0 
          0 0 0 
          0 0 0 
          0 0 0 
          0 0 0 
          0 0 0 
          0 0 0 
          0 0 0 
          0 0 0 
          0 0 0 
          0 0 0 
          0 0 0 
          0 0 0 
          0 0 0 
          0 0 0 
          0 0 0 
          0 0 0 
          0 0 0 
          0 0 0 
          0 0 0 
          0 0 0 
          0 0 0 
          0 0 0 
          0 0 0 
          0 0 0 
          0 0 0 
          0 0 0 
          0 0 0 
          0 0 0 
          0 0 0 
          0 0 0 
          0 0 0 
          0 0 0 
          0 0 0 
          0 0 0 
          0 0 0 
          0 0 0 
          0 0 0 
          0 0 0 
          0 0 0 
          0 0 0 
          0 0 0 
          0 0 0 
          0 0 0 
          0 0 0 
          0 0 0 
          0 0 0 
          0 0 0 
          0 0 0 
          0 0 0 
          0 0 0 
          0 0 0 
          0 0 0 
          0 0 0 
          0 0 0 
          0 0 0 
          0 0 0 
          0 0 0 
          0 0 0 
          0 0 0 
          0 0 0 
          0 0 0 
          0 0 0 
          0 0 0 
          0 0 0 
          0 0 0 
          0 0 0 
          0 0 0 
          0 0 0 
          0 0 0 
          0 0 0 
          0 0 0 
          0 0 0 
          0 0 0 
          0 0 0 
          0 0 0 
          0 0 0 
          0 0 0 
          0 0 0 
          0 0 0 
          0 0 0 
          0 0 0 
          0 0 0 
          0 0 0 
          0 0 0 
          0 0 0 
          0 0 0 
          0 0 0 
          0 0 0 
          0 0 0 
          0 0 0 
          0 0 0 
          0 0 0 
          0 0 0 
          0 0 0 
          0 0 0 
          0 0 0 
          0 0 0 
          0 0 0 
          0 0 0 
          0 0 0 
          0 0 0 
          0 0 0 
          0 0 0 
          0 0 0 
          0 0 0 
          0 0 0 
          0 0 0 
          0 0 0 
          0 0 0 
          0 0 0 
          0 0 0 
          0 0 0 
          0 0 0 
          0 0 0 
          0 0 0 
          0 0 0 
          0 0 0 
          0 0 0 
          0 0 0 
          0 0 0 
          0 0 0 
          0 0 0 
          0 0 0 
          0 0 0 
          0 0 0 
          0 0 0 
          0 0 0 
          0 0 0 
          0 0 0 
          0 0 0 
          0 0 0 
          0 0 0 
          0 0 0 
          0 0 0 
          0 0 0 
          0 0 0 
          0 0 0 
          0 0 0 
          0 0 0 
          0 0 0 
          0 0 0 
          0 0 0 
          0 0 0 
          0 0 0 
          0 0 0 
          0 0 0 
          0 0 0 
          0 0 0 
          0 0 0 
          0 0 0 
          0 0 0 
          0 0 0 
          0 0 0 
          0 0 0 
          0 0 0 
          0 0 0 
          0 0 0 
          0 0 0 
          0 0 0 
          0 0 0 
          0 0 0 
          0 0 0 
          0 0 0 
          0 0 0 
          0 0 0 
          0 0 0 
          0 0 0 
          0 0 0 
          0 0 0 
          0 0 0 
          0 0 0 
          0 0 0 
          0 0 0 
          0 0 0 
          0 0 0 
          0 0 0 
          0 0 0 
          0 0 0 
          0 0 0 
          0 0 0 
          0 0 0 
          0 0 0 
          0 0 0 
          0 0 0 
          0 0 0 
          0 0 0 
          0 0 0 
          0 0 0 
          0 0 0 
          0 0 0 
          0 0 0 
          0 0 0 
          0 0 0 
          0 0 0 
          0 0 0 
          0 0 0 
          0 0 0 
          0 0 0 
          0 0 0 
          0 0 0 
          0 0 0 
          0 0 0 
          0 0 0 
          0 0 0 
          0 0 0 
          0 0 0 
          0 0 0 
          0 0 0 
          0 0 0 
          0 0 0 
          0 0 0 
          0 0 0 
          0 0 0 
          0 0 0 
          0 0 0 
          0 0 0 
          0 0 0 
          0 0 0 
          0 0 0 
          0 0 0 
          0 0 0 
          0 0 0 
          0 0 0 
          0 0 0 
          0 0 0 
          0 0 0 
          0 0 0 
          0 0 0 
          0 0 0 
          0 0 0 
          0 0 0 
          0 0 0 
          0 0 0 
          0 0 0 
          0 0 0 
          0 0 0 
          0 0 0 
          0 0 0 
          0 0 0 
          0 0 0 
          0 0 0 
          0 0 0 
          0 0 0 
          0 0 0 
          0 0 0 
          0 0 0 
          0 0 0 
          0 0 0 
          0 0 0 
          0 0 0 
          0 0 0 
          0 0 0 
          0 0 0 
          0 0 0 
          0 0 0 
          0 0 0 
          0 0 0 
          0 0 0 
          0 0 0 
          0 0 0 
          0 0 0 
          0 0 0 
          0 0 0 
          0 0 0 
          0 0 0 
          0 0 0 
          0 0 0 
          0 0 0 
          0 0 0 
          0 0 0 
          0 0 0 
          0 0 0 
          0 0 0 
          0 0 0 
          0 0 0 
          0 0 0 
          0 0 0 
          0 0 0 
          0 0 0 
          0 0 0 
          0 0 0 
          0 0 0 
          0 0 0 
          0 0 0 
          0 0 0 
          0 0 0 
          0 0 0 
          0 0 0 
          0 0 0 
          0 0 0 
          0 0 0 
          0 0 0 
          0 0 0 
          0 0 0 
          0 0 0 
          0 0 0 
          0 0 0 
          0 0 0 
          0 0 0 
          0 0 0 
          0 0 0 
          0 0 0 
          0 0 0 
          0 0 0 
          0 0 0 
          0 0 0 
          0 0 0 
          0 0 0 
          0 0 0 
          0 0 0 
          0 0 0 
          0 0 0 
          0 0 0 
          0 0 0 
          0 0 0 
          0 0 0 
          0 0 0 
          0 0 0 
          0 0 0 
          0 0 0 
          0 0 0 
          0 0 0 
          0 0 0 
          0 0 0 
          0 0 0 
          0 0 0 
          0 0 0 
          0 0 0 
          0 0 0 
          0 0 0 
          0 0 0 
          0 0 0 
          0 0 0 
          0 0 0 
          0 0 0 
          0 0 0 
          0 0 0 
          0 0 0 
          0 0 0 
          0 0 0 
          0 0 0 
          0 0 0 
          0 0 0 
          0 0 0 
          0 0 0 
          0 0 0 
          0 0 0 
          0 0 0 
          0 0 0 
          0 0 0 
          0 0 0 
          0 0 0 
          0 0 0 
          0 0 0 
          0 0 0 
          0 0 0 
          0 0 0 
          0 0 0 
          0 0 0 
          0 0 0 
          0 0 0 
          0 0 0 
          0 0 0 
          0 0 0 
          0 0 0 
          0 0 0 
          0 0 0 
          0 0 0 
          0 0 0 
          0 0 0 
          0 0 0 
          0 0 0 
          0 0 0 
          0 0 0 
          0 0 0 
          0 0 0 
          0 0 0 
          0 0 0 
          0 0 0 
          0 0 0 
          0 0 0 
          0 0 0 
          0 0 0 
          0 0 0 
          0 0 0 
          0 0 0 
          0 0 0 
          0 0 0 
          0 0 0 
          0 0 0 
          0 0 0 
          0 0 0 
          0 0 0 
          0 0 0 
          0 0 0 
          0 0 0 
          0 0 0 
          0 0 0 
          0 0 0 
          0 0 0 
          0 0 0 
          0 0 0 
          0 0 0 
          0 0 0 
          0 0 0 
          0 0 0 
          0 0 0 
          0 0 0 
          0 0 0 
          0 0 0 
          0 0 0 
          0 0 0 
          0 0 0 
          0 0 0 
          0 0 0 
          0 0 0 
          0 0 0 
          0 0 0 
          0 0 0 
          0 0 0 
          0 0 0 
        </DataArray>
        <DataArray type="Float64" Name="id" NumberOfComponents="1" Format="ascii">
          49 
          181 
          298 
          321 
          331 
          495 
          514 
          555 
          663 
          873 
          911 
          967 
          141 
          162 
          175 
          370 
          501 
          647 
          672 
          702 
          735 
          755 
          803 
          810 
          856 
          949 
          958 
          989 
          14 
          22 
          26 
          29 
          116 
          240 
          306 
          359 
          428 
          581 
          655 
          804 
          200 
          216 
          228 
          291 
          427 
          430 
          461 
          503 
          522 
          530 
          576 
          703 
          805 
          826 
          956 
          60 
          91 
          202 
          213 
          272 
          329 
          346 
          373 
          454 
          467 
          494 
          866 
          924 
          74 
          84 
          126 
          147 
          160 
          212 
          316 
          394 
          416 
          489 
          508 
          543 
          547 
          549 
          558 
          580 
          591 
          912 
          915 
          982 
          80 
          89 
          176 
          180 
          183 
          354 
          411 
          448 
          584 
          609 
          641 
          733 
          748 
          758 
          825 
          899 
          916 
          945 
          969 
          972 
          11 
          36 
          98 
          106 
          250 
          325 
          432 
          440 
          536 
          560 
          587 
          620 
          621 
          814 
          818 
          835 
          881 
          900 
          27 
          90 
          110 
          153 
          238 
          241 
          285 
          460 
          492 
          526 
          534 
          571 
          586 
          709 
          739 
          764 
          769 
          779 
          796 
          837 
          842 
          846 
          10 
          76 
          206 
          479 
          554 
          879 
          887 
          917 
          966 
          985 
          229 
          401 
          443 
          451 
          551 
          588 
          608 
          725 
          777 
          883 
          984 
          19 
          88 
          161 
          219 
          223 
          237 
          266 
          417 
          470 
          471 
          480 
          485 
          490 
          568 
          594 
          627 
          708 