<?xml version="1.0"?>
<VTKFile type="UnstructuredGrid" version="0.1" byte_order="LittleEndian">
  <UnstructuredGrid>
    <Piece NumberOfPoints="10" NumberOfCells="10">
      <Points>
        <DataArray name="Position" type="Float64" NumberOfComponents="3" Format="ascii">
          1.48929 0.467801 0.0
          1.87171 0.475422 0.0
          1.98786 0.399897 0.0
          0.177515 0.598922 0.0
          0.20232 0.608633 0.0
          0.972998 0.770669 0.0
          0.794551 0.976561 0.0
          1.1544 0.634976 0.0
          1.35922 0.687747 0.0
          1.87135 0.814318 0.0
        </DataArray>
      </Points>
      <Cells>
        <DataArray type="Int32" Name="connectivity" Format="ascii">
          0
          1
          2
          3
          4
          5
          6
          7
          8
          9
        </DataArray>
        <DataArray type="Int32" Name="offsets" Format="ascii">
          1
          2
          3
          4
          5
          6
          7
          8
          9
          10
        </DataArray>
        <DataArray type="UInt8" Name="types" Format="ascii">
          1
          1
          1
          1
          1
          1
          1
          1
          1
          1
        </DataArray>
      </Cells>
      <PointData Scalars="scalars">
        <DataArray type="UInt64" Name="id" NumberOfComponents="1" Format="ascii">
          2
          0
          8
          3
          9
          6
          5
          7
          1
          4
        </DataArray>
      </PointData>
    </Piece>
  </UnstructuredGrid>
</VTKFile>
