<?xml version="1.0"?>
<VTKFile type="UnstructuredGrid" version="0.1" byte_order="LittleEndian">
  <UnstructuredGrid>
    <Piece NumberOfPoints="10" NumberOfCells="10">
      <Points>
        <DataArray name="Position" type="Float64" NumberOfComponents="3" Format="ascii">
          1.2971 0.0683602 0.0
          1.27439 0.193403 0.0
          0.742648 0.997639 0.0
          1.45007 0.662129 0.0
          1.53387 0.613224 0.0
          1.78175 0.621108 0.0
          1.05526 0.954045 0.0
          1.99192 0.769702 0.0
          1.77747 0.810672 0.0
          1.98938 0.999558 0.0
        </DataArray>
      </Points>
      <Cells>
        <DataArray type="Int32" Name="connectivity" Format="ascii">
          0
          1
          2
          3
          4
          5
          6
          7
          8
          9
        </DataArray>
        <DataArray type="Int32" Name="offsets" Format="ascii">
          1
          2
          3
          4
          5
          6
          7
          8
          9
          10
        </DataArray>
        <DataArray type="UInt8" Name="types" Format="ascii">
          1
          1
          1
          1
          1
          1
          1
          1
          1
          1
        </DataArray>
      </Cells>
      <PointData Scalars="scalars">
        <DataArray type="UInt64" Name="id" NumberOfComponents="1" Format="ascii">
          4
          3
          7
          9
          0
          1
          2
          6
          8
          5
        </DataArray>
      </PointData>
    </Piece>
  </UnstructuredGrid>
</VTKFile>
