<?xml version="1.0"?>
<VTKFile type="UnstructuredGrid" version="0.1" byte_order="LittleEndian">
  <UnstructuredGrid>
    <Piece NumberOfPoints="5" NumberOfCells="5">
      <Points>
        <DataArray name="Position" type="Float64" NumberOfComponents="3" Format="ascii">
          0.444282 0.35251 0.0
          0.400923 0.469248 0.0
          0.480312 0.0111003 0.0
          0.618859 0.35277 0.0
          0.701754 0.459391 0.0
        </DataArray>
      </Points>
      <Cells>
        <DataArray type="Int32" Name="connectivity" Format="ascii">
          0
          1
          2
          3
          4
        </DataArray>
        <DataArray type="Int32" Name="offsets" Format="ascii">
          1
          2
          3
          4
          5
        </DataArray>
        <DataArray type="UInt8" Name="types" Format="ascii">
          1
          1
          1
          1
          1
        </DataArray>
      </Cells>
      <PointData Scalars="scalars">
        <DataArray type="UInt64" Name="id" NumberOfComponents="1" Format="ascii">
          0
          1
          2
          3
          4
        </DataArray>
        <DataArray type="Float64" Name="initial anomaly" NumberOfComponents="1" Format="ascii">
          1.70119e-07
          3.73385e-12
          1
          1.72729e-08
          2.3731e-13
        </DataArray>
      </PointData>
    </Piece>
  </UnstructuredGrid>
</VTKFile>
