<?xml version="1.0"?>
<VTKFile type="UnstructuredGrid" version="0.1" byte_order="LittleEndian">
  <UnstructuredGrid>
    <Piece NumberOfPoints="7" NumberOfCells="7">
      <Points>
        <DataArray name="Position" type="Float64" NumberOfComponents="3" Format="ascii">
          0.411962 0.687466 0.0
          0.673742 0.718893 0.0
          0.802754 0.62301 0.0
          0.628403 0.778285 0.0
          0.537498 0.989158 0.0
          0.899552 0.769774 0.0
          0.715596 0.909345 0.0
        </DataArray>
      </Points>
      <Cells>
        <DataArray type="Int32" Name="connectivity" Format="ascii">
          0
          1
          2
          3
          4
          5
          6
        </DataArray>
        <DataArray type="Int32" Name="offsets" Format="ascii">
          1
          2
          3
          4
          5
          6
          7
        </DataArray>
        <DataArray type="UInt8" Name="types" Format="ascii">
          1
          1
          1
          1
          1
          1
          1
        </DataArray>
      </Cells>
      <PointData Scalars="scalars">
        <DataArray type="UInt64" Name="id" NumberOfComponents="1" Format="ascii">
          3
          4
          5
          6
          7
          8
          9
        </DataArray>
        <DataArray type="Float64" Name="velocity" NumberOfComponents="3" Format="ascii">
          0.000308898 4.1946e-06 0
          0.000197069 -0.000123832 0
          9.5956e-05 -0.000233936 0
          0.000208463 -7.35619e-05 0
          2.01958e-05 -1.79872e-07 0
          1.21249e-05 -0.000116015 0
          8.6342e-05 -1.88903e-05 0
        </DataArray>
        <DataArray type="Float64" Name="function" NumberOfComponents="1" Format="ascii">
          0
          0
          0
          0
          0
          0
          0
        </DataArray>
        <DataArray type="Float64" Name="initial C_1" NumberOfComponents="1" Format="ascii">
          0
          0
          0
          0
          0
          0
          0
        </DataArray>
        <DataArray type="Float64" Name="initial position" NumberOfComponents="3" Format="ascii">
          0.395212 0.686481 0
          0.662564 0.725343 0
          0.797123 0.635618 0
          0.616726 0.782055 0
          0.536391 0.989168 0
          0.898859 0.776061 0
          0.710774 0.91036 0
        </DataArray>
      </PointData>
    </Piece>
  </UnstructuredGrid>
</VTKFile>
