<?xml version="1.0"?>
<VTKFile type="UnstructuredGrid" version="0.1" byte_order="LittleEndian">
  <UnstructuredGrid>
    <Piece NumberOfPoints="7" NumberOfCells="7">
      <Points>
        <DataArray name="Position" type="Float64" NumberOfComponents="3" Format="ascii">
          0.911751 0.671401 0.0
          0.884879 0.737711 0.0
          0.554809 0.799461 0.0
          0.736616 0.822835 0.0
          0.810107 0.800781 0.0
          0.882025 0.843874 0.0
          0.82766 0.969659 0.0
        </DataArray>
      </Points>
      <Cells>
        <DataArray type="Int32" Name="connectivity" Format="ascii">
          0
          1
          2
          3
          4
          5
          6
        </DataArray>
        <DataArray type="Int32" Name="offsets" Format="ascii">
          1
          2
          3
          4
          5
          6
          7
        </DataArray>
        <DataArray type="UInt8" Name="types" Format="ascii">
          1
          1
          1
          1
          1
          1
          1
        </DataArray>
      </Cells>
      <PointData Scalars="scalars">
        <DataArray type="UInt64" Name="id" NumberOfComponents="1" Format="ascii">
          5
          3
          6
          9
          8
          4
          7
        </DataArray>
        <DataArray type="Float64" Name="velocity" NumberOfComponents="3" Format="ascii">
          1.34178e-06 -0.000120813 0
          1.52299e-05 -8.48832e-05 0
          0.000132055 -2.15466e-05 0
          7.28013e-05 -3.73837e-05 0
          4.7136e-05 -5.12245e-05 0
          1.28585e-05 -3.52986e-05 0
          8.95815e-06 -1.57028e-06 0
        </DataArray>
        <DataArray type="Float64" Name="function" NumberOfComponents="1" Format="ascii">
          0
          0
          0
          0
          0
          0
          0
        </DataArray>
        <DataArray type="Float64" Name="initial C_0" NumberOfComponents="1" Format="ascii">
          0
          0
          0
          0
          0
          0
          0
        </DataArray>
        <DataArray type="Float64" Name="initial position" NumberOfComponents="3" Format="ascii">
          0.911751 0.671401 0
          0.884879 0.737711 0
          0.554809 0.799461 0
          0.736616 0.822835 0
          0.810107 0.800781 0
          0.882025 0.843874 0
          0.82766 0.969659 0
        </DataArray>
      </PointData>
    </Piece>
  </UnstructuredGrid>
</VTKFile>
