<?xml version="1.0"?>
<VTKFile type="UnstructuredGrid" version="0.1" byte_order="LittleEndian">
  <UnstructuredGrid>
    <Piece NumberOfPoints="7" NumberOfCells="7">
      <Points>
        <DataArray name="Position" type="Float64" NumberOfComponents="3" Format="ascii">
          0.911873 0.659887 0.0
          0.886278 0.729594 0.0
          0.567485 0.797085 0.0
          0.743444 0.819174 0.0
          0.814492 0.795845 0.0
          0.883223 0.840504 0.0
          0.828501 0.96951 0.0
        </DataArray>
      </Points>
      <Cells>
        <DataArray type="Int32" Name="connectivity" Format="ascii">
          0
          1
          2
          3
          4
          5
          6
        </DataArray>
        <DataArray type="Int32" Name="offsets" Format="ascii">
          1
          2
          3
          4
          5
          6
          7
        </DataArray>
        <DataArray type="UInt8" Name="types" Format="ascii">
          1
          1
          1
          1
          1
          1
          1
        </DataArray>
      </Cells>
      <PointData Scalars="scalars">
        <DataArray type="UInt64" Name="id" NumberOfComponents="1" Format="ascii">
          5
          3
          6
          9
          8
          4
          7
        </DataArray>
        <DataArray type="Float64" Name="velocity" NumberOfComponents="3" Format="ascii">
          2.07928e-06 -0.000212317 0
          2.43428e-05 -0.000149952 0
          0.000228494 -4.82499e-05 0
          0.000121021 -6.85057e-05 0
          7.72048e-05 -9.1484e-05 0
          2.11701e-05 -6.19455e-05 0
          1.50579e-05 -2.69334e-06 0
        </DataArray>
        <DataArray type="Float64" Name="function" NumberOfComponents="1" Format="ascii">
          0
          0
          0
          0
          0
          0
          0
        </DataArray>
        <DataArray type="Float64" Name="initial C_0" NumberOfComponents="1" Format="ascii">
          0
          0
          0
          0
          0
          0
          0
        </DataArray>
        <DataArray type="Float64" Name="initial position" NumberOfComponents="3" Format="ascii">
          0.911751 0.671401 0
          0.884879 0.737711 0
          0.554809 0.799461 0
          0.736616 0.822835 0
          0.810107 0.800781 0
          0.882025 0.843874 0
          0.82766 0.969659 0
        </DataArray>
      </PointData>
    </Piece>
  </UnstructuredGrid>
</VTKFile>
