<?xml version="1.0"?>
<VTKFile type="UnstructuredGrid" version="0.1" byte_order="LittleEndian">
  <UnstructuredGrid>
    <Piece NumberOfPoints="3" NumberOfCells="3">
      <Points>
        <DataArray name="Position" type="Float64" NumberOfComponents="3" Format="ascii">
          0.511789 0.421401 0.0
          0.542054 0.487711 0.0
          0.710612 0.468874 0.0
        </DataArray>
      </Points>
      <Cells>
        <DataArray type="Int32" Name="connectivity" Format="ascii">
          0
          1
          2
        </DataArray>
        <DataArray type="Int32" Name="offsets" Format="ascii">
          1
          2
          3
        </DataArray>
        <DataArray type="UInt8" Name="types" Format="ascii">
          1
          1
          1
        </DataArray>
      </Cells>
      <PointData Scalars="scalars">
        <DataArray type="UInt64" Name="id" NumberOfComponents="1" Format="ascii">
          2
          0
          1
        </DataArray>
        <DataArray type="Float64" Name="velocity" NumberOfComponents="3" Format="ascii">
          8.74767e-05 -7.12398e-05 0
          0.000125991 -8.2631e-05 0
          7.24117e-05 -0.000179449 0
        </DataArray>
        <DataArray type="Float64" Name="function" NumberOfComponents="1" Format="ascii">
          0
          0
          0
        </DataArray>
        <DataArray type="Float64" Name="initial C_0" NumberOfComponents="1" Format="ascii">
          -1.56501e-09
          -2.4698e-12
          4.40536e-13
        </DataArray>
        <DataArray type="Float64" Name="initial position" NumberOfComponents="3" Format="ascii">
          0.511789 0.421401 0
          0.542054 0.487711 0
          0.710612 0.468874 0
        </DataArray>
      </PointData>
    </Piece>
  </UnstructuredGrid>
</VTKFile>
