<?xml version="1.0"?>
<VTKFile type="UnstructuredGrid" version="0.1" byte_order="LittleEndian">
  <UnstructuredGrid>
    <Piece NumberOfPoints="10" NumberOfCells="10">
      <Points>
        <DataArray name="Position" type="Float64" NumberOfComponents="3" Format="ascii">
          0.0500156 0.159088 0.0
          0.395293 0.00588082 0.0
          0.925211 0.402301 0.0
          0.488093 0.73967 0.0
          0.095918 0.776578 0.0
          0.129919 0.801656 0.0
          0.36659 0.932513 0.0
          0.617394 0.577532 0.0
          0.741818 0.730198 0.0
          0.635338 0.788598 0.0
        </DataArray>
      </Points>
      <Cells>
        <DataArray type="Int32" Name="connectivity" Format="ascii">
          0
          1
          2
          3
          4
          5
          6
          7
          8
          9
        </DataArray>
        <DataArray type="Int32" Name="offsets" Format="ascii">
          1
          2
          3
          4
          5
          6
          7
          8
          9
          10
        </DataArray>
        <DataArray type="UInt8" Name="types" Format="ascii">
          1
          1
          1
          1
          1
          1
          1
          1
          1
          1
        </DataArray>
      </Cells>
      <PointData Scalars="scalars">
        <DataArray type="UInt64" Name="id" NumberOfComponents="1" Format="ascii">
          9
          5
          0
          2
          1
          3
          7
          8
          6
          4
        </DataArray>
      </PointData>
    </Piece>
  </UnstructuredGrid>
</VTKFile>
