<?xml version="1.0"?>
<VTKFile type="UnstructuredGrid" version="0.1" byte_order="LittleEndian">
  <UnstructuredGrid>
    <Piece NumberOfPoints="1000" NumberOfCells="1000">
      <Points>
        <DataArray name="Position" type="Float64" NumberOfComponents="3" Format="ascii">
          2.27781e-05 0.00695001 0.0
          0.0226468 0.0404796 0.0
          0.0290299 0.0161396 0.0
          0.0539682 0.0134192 0.0
          0.0667563 0.00195334 0.0
          0.0775623 0.00737156 0.0
          0.0800395 0.0089747 0.0
          0.08964 0.0566455 0.0
          0.0898348 0.0547731 0.0
          0.0967302 0.028485 0.0
          0.116756 0.00501936 0.0
          0.00457531 0.0969339 0.0
          0.050079 0.0857566 0.0
          0.0291005 0.0740274 0.0
          0.0550734 0.108979 0.0
          0.0639629 0.116938 0.0
          0.0804471 0.10754 0.0
          0.0918895 0.107078 0.0
          0.079072 0.0775039 0.0
          0.100022 0.112196 0.0
          0.102439 0.0765306 0.0
          0.105574 0.071088 0.0
          0.0946749 0.0694963 0.0
          0.118357 0.101408 0.0
          0.132614 0.0310571 0.0
          0.138274 0.0269285 0.0
          0.148177 0.00898396 0.0
          0.158933 0.0343643 0.0
          0.162494 0.0592832 0.0
          0.172118 0.0429077 0.0
          0.198002 0.0117816 0.0
          0.246619 0.0161736 0.0
          0.246461 0.0471127 0.0
          0.127611 0.0814079 0.0
          0.153395 0.0788166 0.0
          0.17825 0.0918895 0.0
          0.176573 0.0791136 0.0
          0.142656 0.0635556 0.0
          0.18411 0.0845484 0.0
          0.20774 0.105245 0.0
          0.23479 0.115668 0.0
          0.232416 0.117107 0.0
          0.24283 0.108982 0.0
          0.0192808 0.175292 0.0
          0.0401961 0.176271 0.0
          0.0251748 0.151973 0.0
          0.00337271 0.134962 0.0
          0.0128019 0.128582 0.0
          0.0343456 0.128962 0.0
          0.103973 0.185455 0.0
          0.110413 0.165577 0.0
          0.114285 0.138411 0.0
          0.118961 0.175501 0.0
          0.124832 0.14726 0.0
          0.0393763 0.234298 0.0
          0.0451389 0.224355 0.0
          0.0527677 0.234016 0.0
          0.0216393 0.214207 0.0
          0.0320626 0.205705 0.0
          0.061311 0.240211 0.0
          0.0810329 0.231436 0.0
          0.0702671 0.222793 0.0
          0.0745124 0.224109 0.0
          0.175553 0.177712 0.0
          0.183123 0.181928 0.0
          0.186871 0.165485 0.0
          0.199433 0.142022 0.0
          0.234469 0.186486 0.0
          0.247507 0.137848 0.0
          0.139514 0.240767 0.0
          0.162879 0.244104 0.0
          0.162371 0.245533 0.0
          0.172291 0.234042 0.0
          0.137311 0.195232 0.0
          0.219551 0.205359 0.0
          0.232291 0.220231 0.0
          0.250509 0.00691142 0.0
          0.266532 0.0248592 0.0
          0.262101 0.0253372 0.0
          0.289388 0.00361471 0.0
          0.316167 0.00970327 0.0
          0.347099 0.0149929 0.0
          0.351171 0.029219 0.0
          0.269355 0.0985898 0.0
          0.27545 0.0666468 0.0
          0.272754 0.124016 0.0
          0.316886 0.0666077 0.0
          0.328529 0.0945413 0.0
          0.362662 0.0844047 0.0
          0.329706 0.119191 0.0
          0.334579 0.119427 0.0
          0.397591 0.00316696 0.0
          0.376272 0.0185295 0.0
          0.397535 0.0555729 0.0
          0.486176 0.0233984 0.0
          0.455488 0.00296164 0.0
          0.467901 0.0148302 0.0
          0.454454 0.0523232 0.0
          0.45915 0.0599973 0.0
          0.387251 0.0833096 0.0
          0.397141 0.088783 0.0
          0.393438 0.0902043 0.0
          0.410473 0.0904777 0.0
          0.425409 0.0982471 0.0
          0.433508 0.0630428 0.0
          0.401534 0.118592 0.0
          0.455185 0.0736063 0.0
          0.480112 0.0895548 0.0
          0.493112 0.0746644 0.0
          0.44973 0.0712264 0.0
          0.268658 0.14356 0.0
          0.272918 0.139996 0.0
          0.269591 0.142964 0.0
          0.31135 0.131151 0.0
          0.283188 0.18565 0.0
          0.305418 0.187136 0.0
          0.322962 0.177928 0.0
          0.368759 0.149427 0.0
          0.272629 0.209526 0.0
          0.295044 0.22329 0.0
          0.274142 0.240993 0.0
          0.359289 0.238879 0.0
          0.37358 0.231378 0.0
          0.405877 0.127141 0.0
          0.385005 0.139063 0.0
          0.377317 0.144234 0.0
          0.420075 0.173761 0.0
          0.436224 0.145497 0.0
          0.432691 0.180804 0.0
          0.462645 0.132016 0.0
          0.442478 0.164488 0.0
          0.376297 0.191393 0.0
          0.407852 0.200729 0.0
          0.412817 0.211321 0.0
          0.392264 0.21607 0.0
          0.43691 0.192352 0.0
          0.478608 0.192076 0.0
          0.456276 0.193008 0.0
          0.456564 0.199026 0.0
          0.458251 0.226582 0.0
          0.478098 0.241849 0.0
          0.44049 0.231942 0.0
          0.0274888 0.299023 0.0
          0.0236083 0.298083 0.0
          0.0375589 0.28115 0.0
          0.0578191 0.29496 0.0
          0.0477963 0.259573 0.0
          0.101844 0.301529 0.0
          0.106151 0.290041 0.0
          0.0670497 0.277868 0.0
          0.0389155 0.358183 0.0
          0.0362046 0.329379 0.0
          0.0503936 0.323312 0.0
          0.0539802 0.315186 0.0
          0.0560861 0.321867 0.0
          0.0612761 0.342581 0.0
          0.0642585 0.352505 0.0
          0.114448 0.341859 0.0
          0.158608 0.311434 0.0
          0.212903 0.284518 0.0
          0.219888 0.263408 0.0
          0.15264 0.371217 0.0
          0.167966 0.363006 0.0
          0.136063 0.322324 0.0
          0.18684 0.336733 0.0
          0.189034 0.354615 0.0
          0.194802 0.328653 0.0
          0.202674 0.320789 0.0
          0.209964 0.373958 0.0
          0.206445 0.322203 0.0
          0.22732 0.356019 0.0
          0.227089 0.358172 0.0
          0.243194 0.350257 0.0
          0.0531183 0.417557 0.0
          0.0662426 0.428992 0.0
          0.1105 0.417375 0.0
          0.101768 0.391704 0.0
          0.0629445 0.389466 0.0
          0.0633433 0.3904 0.0
          0.0358872 0.496037 0.0
          0.0441673 0.487296 0.0
          0.00116822 0.479404 0.0
          0.0350933 0.449032 0.0
          0.0433335 0.447404 0.0
          0.0360412 0.443187 0.0
          0.0839071 0.493355 0.0
          0.0873766 0.463795 0.0
          0.147458 0.42844 0.0
          0.134151 0.433456 0.0
          0.143327 0.412032 0.0
          0.148318 0.396032 0.0
          0.19132 0.420691 0.0
          0.192557 0.433993 0.0
          0.227859 0.41116 0.0
          0.248026 0.426584 0.0
          0.131292 0.471924 0.0
          0.17304 0.458216 0.0
          0.208064 0.461076 0.0
          0.25427 0.279559 0.0
          0.270684 0.27295 0.0
          0.278226 0.274194 0.0
          0.287848 0.279237 0.0
          0.311764 0.271333 0.0
          0.312071 0.283713 0.0
          0.339756 0.28105 0.0
          0.319084 0.294274 0.0
          0.277516 0.319138 0.0
          0.300424 0.318101 0.0
          0.353686 0.327376 0.0
          0.361353 0.347377 0.0
          0.325093 0.367881 0.0
          0.33612 0.369774 0.0
          0.34218 0.373102 0.0
          0.413944 0.259569 0.0
          0.420952 0.286723 0.0
          0.49478 0.29418 0.0
          0.484561 0.263762 0.0
          0.467817 0.253005 0.0
          0.465292 0.253983 0.0
          0.440997 0.259372 0.0
          0.379849 0.338225 0.0
          0.378005 0.360142 0.0
          0.431478 0.373598 0.0
          0.382284 0.370103 0.0
          0.464836 0.316448 0.0
          0.478125 0.338773 0.0
          0.4384 0.350842 0.0
          0.271398 0.405275 0.0
          0.307684 0.417455 0.0
          0.296693 0.423712 0.0
          0.328735 0.413666 0.0
          0.359068 0.433877 0.0
          0.271368 0.466987 0.0
          0.295488 0.459951 0.0
          0.25897 0.488588 0.0
          0.297034 0.472496 0.0
          0.251794 0.495556 0.0
          0.336574 0.446711 0.0
          0.364683 0.451217 0.0
          0.369527 0.460677 0.0
          0.387692 0.376257 0.0
          0.404671 0.395467 0.0
          0.394744 0.390912 0.0
          0.391086 0.416851 0.0
          0.474832 0.391822 0.0
          0.450933 0.377011 0.0
          0.457082 0.399622 0.0
          0.445356 0.406631 0.0
          0.457316 0.418787 0.0
          0.450121 0.434114 0.0
          0.409647 0.437957 0.0
          0.433257 0.459262 0.0
          0.397428 0.467197 0.0
          0.379005 0.462884 0.0
          0.387682 0.477926 0.0
          0.385319 0.490899 0.0
          0.464182 0.470768 0.0
          0.479206 0.49736 0.0
          0.449822 0.495817 0.0
          0.518633 0.0547485 0.0
          0.516569 0.0548059 0.0
          0.559166 0.000600758 0.0
          0.523315 0.0541842 0.0
          0.566874 0.0610044 0.0
          0.593458 0.0396563 0.0
          0.56032 0.114843 0.0
          0.554968 0.0759495 0.0
          0.550195 0.0705112 0.0
          0.530003 0.0939877 0.0
          0.542103 0.116017 0.0
          0.622527 0.0635577 0.0
          0.612777 0.0692808 0.0
          0.572929 0.112854 0.0
          0.605233 0.101348 0.0
          0.601962 0.0706751 0.0
          0.596965 0.114254 0.0
          0.673964 0.0292525 0.0
          0.661359 0.0122318 0.0
          0.681055 0.0393773 0.0
          0.632174 0.0350449 0.0
          0.692138 0.0422637 0.0
          0.742916 0.0301999 0.0
          0.69006 0.0151834 0.0
          0.697451 0.0560716 0.0
          0.696866 0.0522847 0.0
          0.628409 0.101116 0.0
          0.650529 0.0757539 0.0
          0.626929 0.0718656 0.0
          0.710643 0.11231 0.0
          0.733641 0.098461 0.0
          0.705811 0.0853685 0.0
          0.723528 0.123035 0.0
          0.69074 0.122504 0.0
          0.518307 0.164573 0.0
          0.541527 0.173487 0.0
          0.520567 0.171669 0.0
          0.617478 0.138946 0.0
          0.62425 0.166191 0.0
          0.567839 0.13987 0.0
          0.58213 0.130502 0.0
[...]
      <PointData Scalars="scalars">
        <DataArray type="Float64" Name="velocity" NumberOfComponents="3" Format="ascii">
          -2.70417e-07 7.38132e-05 0 
          -0.000262101 0.000422559 0 
          -0.000336437 0.000167654 0 
          -0.000613179 0.000132285 0 
          -0.000750304 1.85063e-05 0 
          -0.000859244 6.6873e-05 0 
          -0.000883286 8.05201e-05 0 
          -0.000959493 0.000482279 0 
          -0.000962211 0.000465976 0 
          -0.00103408 0.00023415 0 
          -0.00120425 3.61595e-05 0 
          -5.17636e-05 0.00101337 0 
          -0.000551619 0.00084484 0 
          -0.000328999 0.000762652 0 
          -0.000591043 0.00105207 0 
          -0.000675115 0.00109485 0 
          -0.00083952 0.000946268 0 
          -0.000941275 0.000891002 0 
          -0.000849522 0.000691664 0 
          -0.00100381 0.000890113 0 
          -0.0010575 0.000603848 0 
          -0.00108744 0.000550309 0 
          -0.000996603 0.000574902 0 
          -0.00115766 0.00071023 0 
          -0.00131313 0.000193746 0 
          -0.00135089 0.000158524 0 
          -0.00141297 4.72099e-05 0 
          -0.00145976 0.000154897 0 
          -0.00145926 0.000251854 0 
          -0.00150986 0.00015279 0 
          -0.00159193 1.8699e-05 0 
          -0.00157464 -3.68664e-05 0 
          -0.00155974 -0.000105954 0 
          -0.00124457 0.000529057 0 
          -0.00139823 0.000383271 0 
          -0.00148199 0.00028386 0 
          -0.00149276 0.000254773 0 
          -0.0013555 0.00035487 0 
          -0.00150856 0.000224027 0 
          -0.00151876 8.82779e-05 0 
          -0.00149363 -0.000145475 0 
          -0.00149388 -0.000125306 0 
          -0.0014925 -0.000207054 0 
          -0.000193762 0.00176184 0 
          -0.000396421 0.0017171 0 
          -0.00026183 0.00153473 0 
          -3.65774e-05 0.00139382 0 
          -0.000138967 0.00132595 0 
          -0.000366253 0.00129676 0 
          -0.00092591 0.00139396 0 
          -0.00100684 0.00120342 0 
          -0.00107858 0.000989173 0 
          -0.00104661 0.00119074 0 
          -0.00113655 0.000962488 0 
          -0.000341315 0.00220796 0 
          -0.000399512 0.0021028 0 
          -0.000452531 0.00213799 0 
          -0.00020016 0.00210118 0 
          -0.000299854 0.00200079 0 
          -0.000513139 0.00213038 0 
          -0.000676768 0.00191448 0 
          -0.000609506 0.00193753 0 
          -0.000640483 0.00191526 0 
          -0.00130691 0.000572707 0 
          -0.00131589 0.000486682 0 
          -0.00136554 0.000398794 0 
          -0.00144074 0.000209981 0 
          -0.00133161 -0.000211534 0 
          -0.00142843 -0.000306675 0 
          -0.0010023 0.00130142 0 
          -0.00107937 0.000969279 0 
          -0.00107328 0.000982143 0 
          -0.00113798 0.00078933 0 
          -0.0011109 0.00110853 0 
          -0.00128688 9.00679e-07 0 
          -0.00123269 -0.000201669 0 
          -0.00156694 -1.79335e-05 0 
          -0.00151273 -9.49676e-05 0 
          -0.00152809 -8.83037e-05 0 
          -0.00141551 -1.9823e-05 0 
          -0.00125148 -6.99626e-05 0 
          -0.0010223 -0.000129744 0 
          -0.000986395 -0.000256307 0 
          -0.00143413 -0.000388825 0 
          -0.0014491 -0.000295748 0 
          -0.00137973 -0.000512932 0 
          -0.0012192 -0.000477898 0 
          -0.00111238 -0.000729882 0 
          -0.000862542 -0.000759223 0 
          -0.00107374 -0.000917216 0 
          -0.00103981 -0.00094543 0 
          -0.000591048 -2.97377e-05 0 
          -0.000774291 -0.000173861 0 
          -0.000582194 -0.000517238 0 
          -2.04404e-05 -5.4972e-05 0 
          -0.000144914 -1.87286e-05 0 
          -8.16083e-05 -7.30366e-05 0 
          -0.000148894 -0.000333441 0 
          -0.000122187 -0.000353266 0 
          -0.000655524 -0.000776801 0 
          -0.000570962 -0.000819941 0 
          -0.000600412 -0.000836374 0 
          -0.000463242 -0.000808812 0 
          -0.000344483 -0.00081813 0 
          -0.000292099 -0.000502723 0 
          -0.000517982 -0.00107437 0 
          -0.000142693 -0.000462 0 
          -3.50839e-05 -0.000289085 0 
          -7.20419e-06 -8.9807e-05 0 
          -0.000175498 -0.000483421 0 
          -0.00135647 -0.000544887 0 
          -0.00134839 -0.000575294 0 
          -0.00135444 -0.000552433 0 
          -0.00117409 -0.000875092 0 
          -0.00120318 -0.000866568 0 
          -0.00109535 -0.00113732 0 
          -0.00101597 -0.00126482 0 
          -0.000747663 -0.0013256 0 
          -0.00117691 -0.000810032 0 
          -0.00105066 -0.00117541 0 
          -0.00107478 -0.000925569 0 
          -0.000666106 -0.00193335 0 
          -0.000589634 -0.00195314 0 
          -0.000478762 -0.00113594 0 
          -0.000630764 -0.00126705 0 
          -0.000686049 -0.00130319 0 
          -0.000343942 -0.00143476 0 
          -0.000247568 -0.00110216 0 
          -0.00025509 -0.00137786 0 
          -9.71053e-05 -0.00070999 0 
          -0.000198712 -0.00116608 0 
          -0.000634092 -0.00167611 0 
          -0.000404 -0.00170658 0 
          -0.000361641 -0.00175324 0 
          -0.000489578 -0.00186716 0 
          -0.000221878 -0.00140862 0 
          -3.37599e-05 -0.00062944 0 
          -0.000114675 -0.00112588 0 
          -0.000111794 -0.00115081 0 
          -9.71149e-05 -0.00124709 0 
          -3.08142e-05 -0.000779168 0 
          -0.000180207 -0.00159748 0 
          -0.000194717 0.00272765 0 
          -0.000168394 0.00273455 0 
          -0.000282076 0.00256435 0 
          -0.000405182 0.00253126 0 
          -0.000382364 0.00235768 0 
          -0.000648988 0.00211869 0 
          -0.000701506 0.00200373 0 
          -0.000495695 0.00234798 0 
          -0.000204825 0.0030175 0 
          -0.00022284 0.002878 0 
          -0.000315183 0.00275708 0 
          -0.000349133 0.00268366 0 
          -0.000351272 0.00270669 0 
          -0.000344546 0.00277563 0 
          -0.000340978 0.00279749 0 
          -0.000586669 0.00212592 0 
          -0.00083392 0.00126132 0 
          -0.00101074 0.00015534 0 
          -0.00109053 1.09741e-05 0 
          -0.000587138 0.00154362 0 
          -0.000646496 0.00121241 0 
          -0.00072906 0.00169677 0 
          -0.000781441 0.000759034 0 
          -0.000706309 0.000741265 0 
          -0.000822564 0.000575824 0 
          -0.000860333 0.000398834 0 
          -0.000625631 0.000291733 0 
          -0.000855579 0.000320782 0 
          -0.000701978 -0.000116822 0 
          -0.000692336 -0.000110919 0 
          -0.000713315 -0.000478205 0 
          -0.00017473 0.00315802 0 
          -0.000189556 0.00306691 0 
          -0.000326289 0.00243972 0 
          -0.000387606 0.00250205 0 
          -0.000261976 0.00297106 0 
          -0.000261613 0.00297074 0 
          -2.38207e-05 0.00343435 0 
          -4.20511e-05 0.00337287 0 
          -1.50397e-06 0.00352425 0 
          -8.02663e-05 0.00337035 0 
          -0.000100565 0.00331447 0 
          -8.95472e-05 0.00335111 0 
          -5.50355e-05 0.00296639 0 
          -0.000141308 0.00288546 0 
          -0.000342306 0.00177348 0 
          -0.00030659 0.00204868 0 
          -0.000405176 0.00182474 0 
          -0.000478207 0.00168983 0 
          -0.000404082 0.000779691 0 
          -0.000340505 0.000764739 0 
          -0.000441769 -0.000110061 0 
          -0.000350434 -0.000602045 0 
          -0.000150784 0.00216316 0 
          -0.000223409 0.00125642 0 
          -0.0002044 0.000407459 0 
          -0.000989167 -0.000656041 0 
          -0.000974787 -0.000948386 0 
          -0.000948437 -0.00108422 0 
          -0.000899527 -0.00126353 0 
          -0.000831516 -0.00161739 0 
          -0.000791009 -0.00167168 0 
          -0.000672389 -0.00201297 0 
          -0.00072733 -0.0018171 0 
          -0.000780657 -0.00117365 0 
          -0.00071684 -0.00159487 0 
          -0.000482924 -0.00235637 0 
          -0.000399078 -0.00249703 0 
          -0.000456897 -0.00214811 0 
          -0.000417694 -0.00231014 0 
          -0.000388765 -0.00239508 0 
          -0.000306166 -0.00205645 0 
          -0.000241406 -0.00214284 0 
          -3.0759e-06 -0.000235654 0 
          -1.63584e-05 -0.000609484 0 
          -5.69021e-05 -0.00111583 0 
          -6.46238e-05 -0.00118811 0 
          -0.000162503 -0.00173536 0 
          -0.000346619 -0.00256167 0 
          -0.000305753 -0.00264027 0 
          -0.000114596 -0.00235553 0 
          -0.000268922 -0.00268717 0 
          -5.11143e-05 -0.00140255 0 
          -2.03717e-05 -0.000986587 0 
          -0.000112697 -0.00216581 0 
          -0.000422603 -0.00115353 0 
          -0.000308969 -0.00192909 0 
          -0.000301224 -0.00171358 0 
          -0.000283363 -0.00229805 0 
          -0.000162085 -0.00269856 0 
          -0.00013343 -0.00116576 0 
          -0.000144441 -0.00170544 0 
          -3.75791e-05 -0.000858893 0 
          -8.78044e-05 -0.0017386 0 
          -7.31444e-06 -0.000674851 0 
          -0.000151615 -0.00245344 0 
          -0.000104308 -0.00276547 0 
          -7.33597e-05 -0.00280815 0 
          -0.000238728 -0.0027136 0 
          -0.000156679 -0.00271854 0 
          -0.000189778 -0.00274935 0 
          -0.000147068 -0.00281783 0 
          -1.7333e-05 -0.0011985 0 
          -6.17612e-05 -0.00196356 0 
          -3.95629e-05 -0.00183804 0 
          -5.57914e-05 -0.00216621 0 
          -3.12094e-05 -0.00186154 0 
          -3.22165e-05 -0.00208973 0 
          -7.89354e-05 -0.00276891 0 
          -2.8977e-05 -0.00248609 0 
          -3.89277e-05 -0.00287056 0 
          -6.0061e-05 -0.00286228 0 
          -2.06641e-05 -0.00288878 0 
          8.28336e-06 -0.00288705 0 
          -6.92068e-06 -0.00167952 0 
          2.63383e-07 -0.00107503 0 
          3.04293e-06 -0.00213532 0 
          -5.29112e-08 -3.25544e-09 0 
          -5.29605e-08 -3.22215e-09 0 
          -5.14827e-08 -4.35083e-11 0 
          -5.27902e-08 -3.30364e-09 0 
          -4.98843e-08 -4.51152e-09 0 
          -4.81172e-08 -3.23606e-09 0 
          -4.80782e-08 -8.1486e-09 0 
          -5.03499e-08 -5.34118e-09 0 
          -5.08963e-08 -4.86698e-09 0 
          -5.10043e-08 -5.87349e-09 0 
          -4.92363e-08 -7.61798e-09 0 
          -4.50566e-08 -5.64958e-09 0 
          -4.57093e-08 -5.97931e-09 0 
          -4.71579e-08 -8.41276e-09 0 
          -4.50837e-08 -8.46824e-09 0 
          -4.65803e-08 -5.89827e-09 0 
          -4.51176e-08 -9.25553e-09 0 
          -4.09771e-08 -2.96997e-09 0 
          -4.23759e-08 -1.21049e-09 0 
          -4.01136e-08 -4.05241e-09 0 
          -4.48545e-08 -3.21335e-09 0 
          -3.89088e-08 -4.44672e-09 0 
          -3.3468e-08 -3.47921e-09 0 
          -3.94302e-08 -1.59755e-09 0 
          -3.8087e-08 -5.94842e-09 0 
          -3.82269e-08 -5.54366e-09 0 
          -4.31854e-08 -9.04258e-09 0 
          -4.22224e-08 -7.2298e-09 0 
          -4.44311e-08 -6.45662e-09 0 
          -3.49579e-08 -1.20232e-08 0 
          -3.30358e-08 -1.10167e-08 0 
          -3.64293e-08 -9.14163e-09 0 
          -3.31805e-08 -1.3417e-08 0 
          -3.65211e-08 -1.25792e-08 0 
          -4.6692e-08 -9.38775e-09 0 
          -4.50924e-08 -1.10512e-08 0 
          -4.60358e-08 -9.8727e-09 0 
          -4.20542e-08 -1.18694e-08 0 
          -3.97172e-08 -1.42723e-08 0 
          -4.59091e-08 -1.01154e-08 0 
          -4.5379e-08 -9.98958e-09 0 
          -4.00954e-08 -1.24292e-08 0 
          -4.20198e-08 -1.28938e-08 0 
          -4.06929e-08 -1.34518e-08 0 
          -4.33058e-08 -1.06546e-08 0 
          -3.86458e-08 -1.43784e-08 0 
          -4.3279e-08 -1.23861e-08 0 
          -4.14788e-08 -1.36436e-08 0 
          -3.85648e-08 -1.56476e-08 0 
          -3.80715e-08 -1.59955e-08 0 
          -4.13019e-08 -1.22518e-08 0 
          -3.7846e-08 -1.56748e-08 0 
          -3.36779e-08 -1.80584e-08 0 
          -3.09125e-08 -1.43256e-08 0 
          -3.27516e-08 -1.89277e-08 0 
          -3.54634e-08 -1.7806e-08 0 
          -3.37033e-08 -1.89459e-08 0 
          -2.6132e-08 -2.27896e-08 0 
          -3.0721e-08 -2.05156e-08 0 
          -2.84326e-08 -2.06585e-08 0 
          -2.76273e-08 -2.24865e-08 0 
          -2.95991e-08 -4.44596e-09 0 
          -2.85704e-08 -6.21302e-09 0 
          -3.17966e-08 -5.14837e-09 0 
          -2.62064e-08 -3.46738e-09 0 
          -3.04596e-08 -6.39388e-09 0 
          -2.4673e-08 -1.17688e-09 0 
          -1.94092e-08 -4.22625e-09 0 
          -1.83257e-08 -3.26839e-09 0 
          -2.11895e-08 -4.08141e-09 0 
          -3.16351e-08 -7.5639e-09 0 
          -3.03035e-08 -9.24706e-09 0 
          -2.12482e-08 -1.19559e-08 0 
          -1.07372e-08 -6.98544e-09 0 
          -1.49017e-08 -1.44127e-09 0 
          -8.81587e-09 -1.05319e-09 0 
          -1.55841e-08 -6.63224e-09 0 
          -5.24931e-09 -1.52921e-09 0 
          -5.92642e-09 -1.88488e-09 0 
          -5.86447e-09 -6.87761e-09 0 
          -4.63834e-09 -4.78248e-09 0 
          -1.71866e-09 -4.53048e-09 0 
          -4.39137e-10 -1.82255e-09 0 
          -1.32875e-08 -1.41232e-08 0 
          -1.2564e-08 -1.16056e-08 0 
          -9.00349e-09 -1.40104e-08 0 
          -1.49918e-08 -1.14344e-08 0 
          -4.47386e-09 -1.34938e-08 0 
          -4.61232e-09 -1.56856e-08 0 
          -2.40714e-08 -2.13388e-08 0 
          -2.53854e-08 -1.67325e-08 0 
          -2.5284e-08 -1.91722e-08 0 
          -2.35054e-08 -1.53974e-08 0 
          -2.76225e-08 -1.50794e-08 0 
          -1.74177e-08 -2.27286e-08 0 
          -2.11887e-08 -2.22845e-08 0 
          -1.85263e-08 -2.75219e-08 0 
          -1.64265e-08 -2.74395e-08 0 
          -1.81425e-08 -2.73226e-08 0 
          -1.73156e-08 -2.62295e-08 0 
          -1.23308e-08 -2.18152e-08 0 
          -1.4647e-08 -1.81149e-08 0 
          -1.09332e-08 -2.30487e-08 0 
          -6.45272e-10 -2.08332e-08 0 
          -3.30425e-09 -2.20467e-08 0 
          -1.20327e-09 -1.76944e-08 0 
          -3.62489e-09 -2.15515e-08 0 
          -7.64677e-09 -2.67704e-08 0 
          -8.84163e-09 -2.67472e-08 0 
          -8.9769e-09 -2.43082e-08 0 
          -1.04132e-08 -2.99644e-08 0 
          -6.53267e-09 -2.7486e-08 0 
          -7.1242e-10 -2.62495e-08 0 
          -2.41771e-09 -2.59161e-08 0 
          -5.75659e-09 -2.53382e-08 0 
          -3.13953e-08 -1.74576e-08 0 
          -3.6937e-08 -1.3926e-08 0 
          -3.43513e-08 -1.3313e-08 0 
          -3.57419e-08 -1.50571e-08 0 
          -3.40856e-08 -1.63869e-08 0 
          -2.78605e-08 -2.26144e-08 0 
          -3.07914e-08 -1.95801e-08 0 
          -3.37887e-08 -1.83735e-08 0 
          -2.40745e-08 -1.86084e-08 0 
          -1.99836e-08 -2.55913e-08 0 
          -2.55834e-08 -2.13847e-08 0 
          -2.06398e-08 -2.18384e-08 0 
          -2.57963e-08 -2.16946e-08 0 
          -3.03667e-08 -2.1512e-08 0 
          -2.86409e-08 -2.3203e-08 0 
          -2.64485e-08 -2.48524e-08 0 
          -3.07853e-08 -2.13273e-08 0 
          -2.23411e-08 -2.76072e-08 0 
          -2.44171e-08 -2.61047e-08 0 
          -2.06107e-08 -2.66293e-08 0 
          -2.17162e-08 -2.52823e-08 0 
          -2.20953e-08 -2.70199e-08 0 
          -1.87358e-08 -3.03454e-08 0 
          -1.85498e-08 -3.06263e-08 0 
          -1.80793e-08 -3.09305e-08 0 
          -1.5869e-08 -3.23522e-08 0 
          -1.51543e-08 -3.24154e-08 0 
          -1.32969e-08 -3.35404e-08 0 
          -1.96081e-08 -1.62226e-08 0 
          -1.80554e-08 -2.00465e-08 0 
          -1.3602e-08 -1.78759e-08 0 
          -1.58555e-08 -1.63797e-08 0 
          -1.72017e-08 -2.04079e-08 0 
          -1.70309e-08 -1.7904e-08 0 
          -1.36414e-08 -2.73241e-08 0 
          -1.58408e-08 -2.49759e-08 0 
          -1.2374e-08 -2.38683e-08 0 
          -1.17167e-08 -2.55986e-08 0 
          -1.28741e-08 -2.46016e-08 0 
          -9.09285e-09 -1.74605e-08 0 
          -5.00597e-09 -1.74728e-08 0 
          -9.65052e-09 -2.21295e-08 0 
          -7.5026e-09 -2.24813e-08 0 
          -4.7719e-09 -2.04132e-08 0 
          -1.98614e-09 -2.08085e-08 0 
          -6.03608e-09 -2.47758e-08 0 
          -6.11543e-09 -2.38988e-08 0 
          -6.30751e-09 -2.63601e-08 0 
          -3.37228e-09 -2.54851e-08 0 
          -2.0212e-09 -2.84011e-08 0 
          -6.33961e-09 -2.48234e-08 0 
          -4.11793e-10 -2.51249e-08 0 
          -1.52738e-08 -2.72829e-08 0 
          -1.28157e-08 -2.8519e-08 0 
          -1.05832e-08 -3.37113e-08 0 
          -1.15352e-08 -3.41165e-08 0 
          -9.1828e-09 -3.40191e-08 0 
          -1.36887e-08 -3.25442e-08 0 
          -1.34323e-08 -3.16994e-08 0 
          -8.05605e-09 -3.37722e-08 0 
          -1.09403e-08 -3.42827e-08 0 
          -1.36955e-08 -3.15499e-08 0 
          -4.03114e-09 -3.13609e-08 0 
          -8.51341e-09 -2.82509e-08 0 
          -1.8191e-09 -3.15523e-08 0 
          -7.71042e-09 -3.23678e-08 0 
          -6.48553e-09 -3.39072e-08 0 
          -4.43014e-09 -3.55037e-08 0 
          -5.61733e-10 -3.49895e-08 0 
          -1.42419e-09 -3.63918e-08 0 
          -1.60051e-08 -3.18699e-08 0 
          -1.53057e-08 -3.23354e-08 0 
          -2.14701e-08 -2.75696e-08 0 
          -1.76658e-08 -2.86562e-08 0 
          -2.04377e-08 -2.82895e-08 0 
          -1.83949e-08 -2.83425e-08 0 
          -1.69054e-08 -2.92906e-08 0 
          -1.38113e-08 -2.96925e-08 0 
          -1.13174e-08 -3.17979e-08 0 
          -1.48701e-08 -3.11905e-08 0 
          -1.17115e-08 -3.43709e-08 0 
          -1.48243e-08 -3.32075e-08 0 
          -1.46784e-08 -3.34519e-08 0 
          -1.47282e-08 -3.31468e-08 0 
          -1.23449e-08 -3.48501e-08 0 
          -1.46725e-08 -3.3411e-08 0 
          -1.55841e-08 -3.26883e-08 0 
          -1.13715e-08 -3.58629e-08 0 
          -1.18887e-08 -3.48857e-08 0 
          -9.39788e-09 -3.60314e-08 0 
          -1.03718e-08 -3.65731e-08 0 
          -8.23844e-09 -3.80831e-08 0 
          -8.82627e-09 -3.47209e-08 0 
          -5.82919e-09 -3.31014e-08 0 
          -8.30287e-09 -3.47574e-08 0 
          -1.39023e-09 -3.28243e-08 0 
          -2.64661e-09 -3.59342e-08 0 
          -3.85036e-09 -3.33825e-08 0 
          -3.26144e-09 -3.24376e-08 0 
          -2.24852e-09 -3.59694e-08 0 
          -9.74644e-10 -3.49565e-08 0 
          -2.59439e-09 -3.50417e-08 0 
          -5.39525e-09 -3.74817e-08 0 
          -8.39563e-09 -3.67211e-08 0 
          -5.91095e-09 -3.90371e-08 0 
          -4.72615e-09 -3.97265e-08 0 
          -5.61028e-09 -3.74789e-08 0 
          -7.44993e-09 -3.80191e-08 0 
          -1.80115e-09 -3.87456e-08 0 
          -6.94237e-10 -3.81174e-08 0 
          -1.77553e-09 -3.7384e-08 0 
          -6.77554e-10 -3.96161e-08 0 
          -6.38557e-09 -3.71073e-08 0 
          -9.31166e-09 -3.61078e-08 0 
          -1.05951e-08 -3.51822e-08 0 
          -8.30951e-09 -3.65026e-08 0 
          -6.05311e-09 -3.77292e-08 0 
          -6.12813e-09 -3.73007e-08 0 
          -8.4406e-09 -3.79479e-08 0 
          -3.28862e-09 -3.90851e-08 0 
          -4.37425e-09 -3.72988e-08 0 
          -3.92565e-09 -3.75237e-08 0 
          -2.59376e-09 -3.78987e-08 0 
          -3.37869e-09 -3.87844e-08 0 
          -2.31745e-09 -4.02859e-08 0 
          -2.39006e-09 -4.1415e-08 0 
          -2.3018e-09 -4.06972e-08 0 
          -3.30036e-09 -4.15242e-08 0 
          -3.9588e-09 -4.099e-08 0 
          -2.4006e-09 -4.22074e-08 0 
          -3.46196e-09 -4.07933e-08 0 
          -8.29324e-10 -4.29235e-08 0 
          -3.38335e-10 -4.26869e-08 0 
          -8.207e-10 -4.31036e-08 0 
          -1.85415e-09 -4.21794e-08 0 
          -4.28681e-10 -4.35181e-08 0 
          -2.67312e-09 -4.21333e-08 0 
          -2.87693e-09 -4.18086e-08 0 
          -1.97575e-09 -4.26848e-08 0 
          -1.73005e-11 -4.3893e-08 0 
          -1.20452e-09 -4.3059e-08 0 
          7.66062e-05 0.00327282 0 
          3.96626e-05 0.00345167 0 
          3.61388e-07 0.00353345 0 
          2.79379e-05 0.00340762 0 
          -3.09172e-06 0.00337237 0 
          -9.10724e-07 0.00352741 0 