<?xml version="1.0"?>
<VTKFile type="UnstructuredGrid" version="0.1" byte_order="LittleEndian">
  <UnstructuredGrid>
    <Piece NumberOfPoints="1000" NumberOfCells="1000">
      <Points>
        <DataArray name="Position" type="Float64" NumberOfComponents="3" Format="ascii">
          0.0366378 0.0298399 0.0
          0.0200707 0.019518 0.0
          0.0354511 0.0463384 0.0
          0.0751969 0.024577 0.0
          0.0938702 0.0471423 0.0
          0.0765827 0.0525049 0.0
          0.0176881 0.0953917 0.0
          0.0550872 0.0856351 0.0
          0.0937496 0.115298 0.0
          0.124882 0.0709956 0.0
          0.0783893 0.0991599 0.0
          0.186897 0.00948787 0.0
          0.127596 0.0391081 0.0
          0.154572 0.0268824 0.0
          0.217667 0.0309927 0.0
          0.237824 0.00991697 0.0
          0.209347 0.0475007 0.0
          0.134638 0.0863864 0.0
          0.187117 0.0727811 0.0
          0.168846 0.0655789 0.0
          0.182103 0.0983566 0.0
          0.175239 0.101393 0.0
          0.161402 0.0626377 0.0
          0.235554 0.107694 0.0
          0.211122 0.0782345 0.0
          0.229779 0.113286 0.0
          0.222624 0.0749166 0.0
          0.190825 0.0644065 0.0
          0.0476218 0.148985 0.0
          0.0102151 0.16307 0.0
          0.0126129 0.127198 0.0
          0.0832405 0.151664 0.0
          0.0878913 0.152718 0.0
          0.108428 0.155049 0.0
          0.10928 0.137862 0.0
          0.0863939 0.137445 0.0
          0.0991662 0.127777 0.0
          0.0805532 0.177726 0.0
          0.072271 0.139167 0.0
          0.120127 0.14693 0.0
          0.0917893 0.171642 0.0
          0.00264828 0.238498 0.0
          0.0206611 0.193421 0.0
          0.0270351 0.234278 0.0
          0.0283933 0.216468 0.0
          0.000407394 0.218572 0.0
          0.0158771 0.190107 0.0
          0.114851 0.223252 0.0
          0.0745566 0.224118 0.0
          0.0973916 0.209688 0.0
          0.134167 0.187197 0.0
          0.169418 0.180044 0.0
          0.180041 0.173101 0.0
          0.215975 0.13993 0.0
          0.215209 0.15523 0.0
          0.213525 0.16414 0.0
          0.22486 0.169278 0.0
          0.210119 0.127787 0.0
          0.189715 0.139577 0.0
          0.12967 0.187877 0.0
          0.196885 0.244052 0.0
          0.238896 0.226599 0.0
          0.309687 0.0603914 0.0
          0.294238 0.0255946 0.0
          0.259301 0.0255437 0.0
          0.282659 0.0527326 0.0
          0.272003 0.0152778 0.0
          0.28952 0.0273815 0.0
          0.36358 0.00663281 0.0
          0.361491 0.00542433 0.0
          0.35461 0.0551042 0.0
          0.332215 0.0281569 0.0
          0.334985 0.0433836 0.0
          0.263701 0.10334 0.0
          0.329695 0.114484 0.0
          0.362282 0.0993507 0.0
          0.330281 0.119682 0.0
          0.312719 0.1099 0.0
          0.330147 0.117217 0.0
          0.393343 0.0543836 0.0
          0.386376 0.0242068 0.0
          0.404284 0.0117311 0.0
          0.392251 0.0499478 0.0
          0.383095 0.0300307 0.0
          0.433512 0.0519301 0.0
          0.42317 0.0253221 0.0
          0.477443 0.00101368 0.0
          0.449792 0.0456753 0.0
          0.498574 0.0322765 0.0
          0.467832 0.0353238 0.0
          0.460412 0.0465248 0.0
          0.442296 0.0458561 0.0
          0.431162 0.120849 0.0
          0.383972 0.0917348 0.0
          0.40161 0.0818161 0.0
          0.42827 0.112371 0.0
          0.431649 0.115053 0.0
          0.482408 0.0761996 0.0
          0.492546 0.122255 0.0
          0.49064 0.0767316 0.0
          0.325151 0.131729 0.0
          0.352981 0.156938 0.0
          0.320331 0.158523 0.0
          0.374415 0.150661 0.0
          0.345834 0.163043 0.0
          0.257425 0.197952 0.0
          0.295222 0.204132 0.0
          0.286369 0.198497 0.0
          0.321832 0.245972 0.0
          0.325854 0.242899 0.0
          0.327054 0.243877 0.0
          0.314863 0.212128 0.0
          0.335161 0.187791 0.0
          0.361675 0.240145 0.0
          0.357754 0.243849 0.0
          0.362333 0.19361 0.0
          0.409077 0.149418 0.0
          0.414416 0.129638 0.0
          0.433578 0.18176 0.0
          0.483574 0.183056 0.0
          0.448489 0.185475 0.0
          0.492155 0.129518 0.0
          0.448479 0.151156 0.0
          0.40836 0.202669 0.0
          0.383339 0.223115 0.0
          0.414562 0.225995 0.0
          0.416846 0.224122 0.0
          0.401124 0.249627 0.0
          0.401625 0.228554 0.0
          0.401896 0.23221 0.0
          0.472535 0.228515 0.0
          0.495435 0.223666 0.0
          0.00513786 0.30879 0.0
          0.00450071 0.305177 0.0
          0.0336683 0.2717 0.0
          0.0442295 0.307481 0.0
          0.0923003 0.299021 0.0
          0.10982 0.28002 0.0
          0.116476 0.28406 0.0
          0.091893 0.261132 0.0
          0.118685 0.281798 0.0
          0.0173076 0.317578 0.0
          0.0386228 0.321144 0.0
          0.0143083 0.347502 0.0
          0.0363535 0.357036 0.0
          0.121528 0.314034 0.0
          0.0831741 0.36072 0.0
          0.0746993 0.350329 0.0
          0.0652935 0.350179 0.0
          0.0858904 0.348475 0.0
          0.0973362 0.340225 0.0
          0.158174 0.265122 0.0
          0.130194 0.281437 0.0
          0.132336 0.283783 0.0
          0.17972 0.269797 0.0
          0.202204 0.285634 0.0
          0.208572 0.267178 0.0
          0.196452 0.264248 0.0
          0.215868 0.253664 0.0
          0.245936 0.281136 0.0
          0.181822 0.353203 0.0
          0.129317 0.329144 0.0
          0.143684 0.314728 0.0
          0.220583 0.367303 0.0
          0.197612 0.364515 0.0
          0.222861 0.332289 0.0
          0.239778 0.338251 0.0
          0.244198 0.353623 0.0
          0.245309 0.332957 0.0
          0.233999 0.350827 0.0
          0.0436917 0.412176 0.0
          0.000186043 0.431261 0.0
          0.0273954 0.398687 0.0
          0.0797193 0.391273 0.0
          0.100761 0.38267 0.0
          0.091888 0.399242 0.0
          0.0777973 0.429576 0.0
          0.112515 0.401196 0.0
          0.0470144 0.46409 0.0
          0.0526485 0.43896 0.0
          0.0410931 0.459713 0.0
          0.0247721 0.486185 0.0
          0.0065605 0.480842 0.0
          0.0266032 0.475381 0.0
          0.109369 0.443523 0.0
          0.0886099 0.441613 0.0
          0.177212 0.426674 0.0
          0.127036 0.407274 0.0
          0.185908 0.391707 0.0
          0.172723 0.416288 0.0
          0.214931 0.406466 0.0
          0.225161 0.396707 0.0
          0.211242 0.400753 0.0
          0.167968 0.451133 0.0
          0.140014 0.480266 0.0
          0.151861 0.48659 0.0
          0.157452 0.456965 0.0
          0.189153 0.467207 0.0
          0.191705 0.461812 0.0
          0.210984 0.472118 0.0
          0.226315 0.474083 0.0
          0.239901 0.450461 0.0
          0.215165 0.440211 0.0
          0.218848 0.454046 0.0
          0.262988 0.283241 0.0
          0.254244 0.302122 0.0
          0.333841 0.295973 0.0
          0.32208 0.27634 0.0
          0.350536 0.262601 0.0
          0.355999 0.286195 0.0
          0.269255 0.325578 0.0
          0.310037 0.3464 0.0
          0.292039 0.344735 0.0
          0.292941 0.367454 0.0
          0.251732 0.34108 0.0
          0.268332 0.319575 0.0
          0.263496 0.317392 0.0
          0.256739 0.334085 0.0
          0.33816 0.336572 0.0
          0.347747 0.3569 0.0
          0.420193 0.302209 0.0
          0.43231 0.296073 0.0
          0.42828 0.291236 0.0
          0.422695 0.289973 0.0
          0.388475 0.286549 0.0
          0.382393 0.2666 0.0
          0.438798 0.260284 0.0
          0.481699 0.29553 0.0
          0.387256 0.3512 0.0
          0.403569 0.350493 0.0
          0.477287 0.349824 0.0
          0.449199 0.372893 0.0
          0.460797 0.363993 0.0
          0.466917 0.326291 0.0
          0.496474 0.33437 0.0
          0.312459 0.384949 0.0
          0.29838 0.392068 0.0
          0.290438 0.406896 0.0
          0.373541 0.377626 0.0
          0.332058 0.411002 0.0
          0.314839 0.410947 0.0
          0.358672 0.382846 0.0
          0.332224 0.424645 0.0
          0.30595 0.477168 0.0
          0.256259 0.4879 0.0
          0.271819 0.458907 0.0
          0.315635 0.458164 0.0
          0.37494 0.463126 0.0
          0.316068 0.497458 0.0
          0.433909 0.388828 0.0
          0.400905 0.401497 0.0
          0.473756 0.385063 0.0
          0.447101 0.398261 0.0
          0.478249 0.433348 0.0
          0.392371 0.46154 0.0
          0.427526 0.457302 0.0
          0.390939 0.491548 0.0
          0.412922 0.478903 0.0
          0.451886 0.480167 0.0
          0.48868 0.458761 0.0
          0.499631 0.487169 0.0
          0.485174 0.498469 0.0
          0.486332 0.44877 0.0
          0.522569 0.0302269 0.0
          0.508364 0.0389844 0.0
          0.518271 0.00972442 0.0
          0.547475 0.0619399 0.0
          0.504358 0.0357147 0.0
          0.594028 0.00834015 0.0
          0.57128 0.0116711 0.0
          0.576725 0.015848 0.0
          0.524703 0.118489 0.0
          0.576444 0.093291 0.0
          0.567294 0.0716953 0.0
          0.592313 0.104271 0.0
          0.59587 0.0895526 0.0
          0.60269 0.0897549 0.0
          0.652878 0.0147655 0.0
          0.630181 0.027345 0.0
          0.638278 0.0471687 0.0
          0.673824 0.00758154 0.0
          0.672951 0.00739265 0.0
          0.746447 0.0464688 0.0
          0.663945 0.115555 0.0
          0.674536 0.122964 0.0
          0.648794 0.0695923 0.0
          0.645056 0.111181 0.0
          0.686868 0.0814111 0.0
          0.687671 0.0659462 0.0
          0.560159 0.161217 0.0
          0.523433 0.173465 0.0
          0.547829 0.127921 0.0
          0.608122 0.176329 0.0
          0.586451 0.152902 0.0
          0.596094 0.159147 0.0
          0.548181 0.24943 0.0
          0.531181 0.190869 0.0
          0.549219 0.233693 0.0
          0.552999 0.234194 0.0
          0.551038 0.197229 0.0
          0.603164 0.23436 0.0
[...]
      <PointData Scalars="scalars">
        <DataArray type="Float64" Name="velocity" NumberOfComponents="3" Format="ascii">
          0 0 0 
          0 0 0 
          0 0 0 
          0 0 0 
          0 0 0 
          0 0 0 
          0 0 0 
          0 0 0 
          0 0 0 
          0 0 0 
          0 0 0 
          0 0 0 
          0 0 0 
          0 0 0 
          0 0 0 
          0 0 0 
          0 0 0 
          0 0 0 
          0 0 0 
          0 0 0 
          0 0 0 
          0 0 0 
          0 0 0 
          0 0 0 
          0 0 0 
          0 0 0 
          0 0 0 
          0 0 0 
          0 0 0 
          0 0 0 
          0 0 0 
          0 0 0 
          0 0 0 
          0 0 0 
          0 0 0 
          0 0 0 
          0 0 0 
          0 0 0 
          0 0 0 
          0 0 0 
          0 0 0 
          0 0 0 
          0 0 0 
          0 0 0 
          0 0 0 
          0 0 0 
          0 0 0 
          0 0 0 
          0 0 0 
          0 0 0 
          0 0 0 
          0 0 0 
          0 0 0 
          0 0 0 
          0 0 0 
          0 0 0 
          0 0 0 
          0 0 0 
          0 0 0 
          0 0 0 
          0 0 0 
          0 0 0 
          0 0 0 
          0 0 0 
          0 0 0 
          0 0 0 
          0 0 0 
          0 0 0 
          0 0 0 
          0 0 0 
          0 0 0 
          0 0 0 
          0 0 0 
          0 0 0 
          0 0 0 
          0 0 0 
          0 0 0 
          0 0 0 
          0 0 0 
          0 0 0 
          0 0 0 
          0 0 0 
          0 0 0 
          0 0 0 
          0 0 0 
          0 0 0 
          0 0 0 
          0 0 0 
          0 0 0 
          0 0 0 
          0 0 0 
          0 0 0 
          0 0 0 
          0 0 0 
          0 0 0 
          0 0 0 
          0 0 0 
          0 0 0 
          0 0 0 
          0 0 0 
          0 0 0 
          0 0 0 
          0 0 0 
          0 0 0 
          0 0 0 
          0 0 0 
          0 0 0 
          0 0 0 
          0 0 0 
          0 0 0 
          0 0 0 
          0 0 0 
          0 0 0 
          0 0 0 
          0 0 0 
          0 0 0 
          0 0 0 
          0 0 0 
          0 0 0 
          0 0 0 
          0 0 0 
          0 0 0 
          0 0 0 
          0 0 0 
          0 0 0 
          0 0 0 
          0 0 0 
          0 0 0 
          0 0 0 
          0 0 0 
          0 0 0 
          0 0 0 
          0 0 0 
          0 0 0 
          0 0 0 
          0 0 0 
          0 0 0 
          0 0 0 
          0 0 0 
          0 0 0 
          0 0 0 
          0 0 0 
          0 0 0 
          0 0 0 
          0 0 0 
          0 0 0 
          0 0 0 
          0 0 0 
          0 0 0 
          0 0 0 
          0 0 0 
          0 0 0 
          0 0 0 
          0 0 0 
          0 0 0 
          0 0 0 
          0 0 0 
          0 0 0 
          0 0 0 
          0 0 0 
          0 0 0 
          0 0 0 
          0 0 0 
          0 0 0 
          0 0 0 
          0 0 0 
          0 0 0 
          0 0 0 
          0 0 0 
          0 0 0 
          0 0 0 
          0 0 0 
          0 0 0 
          0 0 0 
          0 0 0 
          0 0 0 
          0 0 0 
          0 0 0 
          0 0 0 
          0 0 0 
          0 0 0 
          0 0 0 
          0 0 0 
          0 0 0 
          0 0 0 
          0 0 0 
          0 0 0 
          0 0 0 
          0 0 0 
          0 0 0 
          0 0 0 
          0 0 0 
          0 0 0 
          0 0 0 
          0 0 0 
          0 0 0 
          0 0 0 
          0 0 0 
          0 0 0 
          0 0 0 
          0 0 0 
          0 0 0 
          0 0 0 
          0 0 0 
          0 0 0 
          0 0 0 
          0 0 0 
          0 0 0 
          0 0 0 
          0 0 0 
          0 0 0 
          0 0 0 
          0 0 0 
          0 0 0 
          0 0 0 
          0 0 0 
          0 0 0 
          0 0 0 
          0 0 0 
          0 0 0 
          0 0 0 
          0 0 0 
          0 0 0 
          0 0 0 
          0 0 0 
          0 0 0 
          0 0 0 
          0 0 0 
          0 0 0 
          0 0 0 
          0 0 0 
          0 0 0 
          0 0 0 
          0 0 0 
          0 0 0 
          0 0 0 
          0 0 0 
          0 0 0 
          0 0 0 
          0 0 0 
          0 0 0 
          0 0 0 
          0 0 0 
          0 0 0 
          0 0 0 
          0 0 0 
          0 0 0 
          0 0 0 
          0 0 0 
          0 0 0 
          0 0 0 
          0 0 0 
          0 0 0 
          0 0 0 
          0 0 0 
          0 0 0 
          0 0 0 
          0 0 0 
          0 0 0 
          0 0 0 
          0 0 0 
          0 0 0 
          0 0 0 
          0 0 0 
          0 0 0 
          0 0 0 
          0 0 0 
          0 0 0 
          0 0 0 
          0 0 0 
          0 0 0 
          0 0 0 
          0 0 0 
          0 0 0 
          0 0 0 
          0 0 0 
          0 0 0 
          0 0 0 
          0 0 0 
          0 0 0 
          0 0 0 
          0 0 0 
          0 0 0 
          0 0 0 
          0 0 0 
          0 0 0 
          0 0 0 
          0 0 0 
          0 0 0 
          0 0 0 
          0 0 0 
          0 0 0 
          0 0 0 
          0 0 0 
          0 0 0 
          0 0 0 
          0 0 0 
          0 0 0 
          0 0 0 
          0 0 0 
          0 0 0 
          0 0 0 
          0 0 0 
          0 0 0 
          0 0 0 
          0 0 0 
          0 0 0 
          0 0 0 
          0 0 0 
          0 0 0 
          0 0 0 
          0 0 0 
          0 0 0 
          0 0 0 
          0 0 0 
          0 0 0 
          0 0 0 
          0 0 0 
          0 0 0 
          0 0 0 
          0 0 0 
          0 0 0 
          0 0 0 
          0 0 0 
          0 0 0 
          0 0 0 
          0 0 0 
          0 0 0 
          0 0 0 
          0 0 0 
          0 0 0 
          0 0 0 
          0 0 0 
          0 0 0 
          0 0 0 
          0 0 0 
          0 0 0 
          0 0 0 
          0 0 0 
          0 0 0 
          0 0 0 
          0 0 0 
          0 0 0 
          0 0 0 
          0 0 0 
          0 0 0 
          0 0 0 
          0 0 0 
          0 0 0 
          0 0 0 
          0 0 0 
          0 0 0 
          0 0 0 
          0 0 0 
          0 0 0 
          0 0 0 
          0 0 0 
          0 0 0 
          0 0 0 
          0 0 0 
          0 0 0 
          0 0 0 
          0 0 0 
          0 0 0 
          0 0 0 
          0 0 0 
          0 0 0 
          0 0 0 
          0 0 0 
          0 0 0 
          0 0 0 
          0 0 0 
          0 0 0 
          0 0 0 
          0 0 0 
          0 0 0 
          0 0 0 
          0 0 0 
          0 0 0 
          0 0 0 
          0 0 0 
          0 0 0 
          0 0 0 
          0 0 0 
          0 0 0 
          0 0 0 
          0 0 0 
          0 0 0 
          0 0 0 
          0 0 0 
          0 0 0 
          0 0 0 
          0 0 0 
          0 0 0 
          0 0 0 
          0 0 0 
          0 0 0 
          0 0 0 
          0 0 0 
          0 0 0 
          0 0 0 
          0 0 0 
          0 0 0 
          0 0 0 
          0 0 0 
          0 0 0 
          0 0 0 
          0 0 0 
          0 0 0 
          0 0 0 
          0 0 0 
          0 0 0 
          0 0 0 
          0 0 0 
          0 0 0 
          0 0 0 
          0 0 0 
          0 0 0 
          0 0 0 
          0 0 0 
          0 0 0 
          0 0 0 
          0 0 0 
          0 0 0 
          0 0 0 
          0 0 0 
          0 0 0 
          0 0 0 
          0 0 0 
          0 0 0 
          0 0 0 
          0 0 0 
          0 0 0 
          0 0 0 
          0 0 0 
          0 0 0 
          0 0 0 
          0 0 0 
          0 0 0 
          0 0 0 
          0 0 0 
          0 0 0 
          0 0 0 
          0 0 0 
          0 0 0 
          0 0 0 
          0 0 0 
          0 0 0 
          0 0 0 
          0 0 0 
          0 0 0 
          0 0 0 
          0 0 0 
          0 0 0 
          0 0 0 
          0 0 0 
          0 0 0 
          0 0 0 
          0 0 0 
          0 0 0 
          0 0 0 
          0 0 0 
          0 0 0 
          0 0 0 
          0 0 0 
          0 0 0 
          0 0 0 
          0 0 0 
          0 0 0 
          0 0 0 
          0 0 0 
          0 0 0 
          0 0 0 
          0 0 0 
          0 0 0 
          0 0 0 
          0 0 0 
          0 0 0 
          0 0 0 
          0 0 0 
          0 0 0 
          0 0 0 
          0 0 0 
          0 0 0 
          0 0 0 
          0 0 0 
          0 0 0 
          0 0 0 
          0 0 0 
          0 0 0 
          0 0 0 
          0 0 0 
          0 0 0 
          0 0 0 
          0 0 0 
          0 0 0 
          0 0 0 
          0 0 0 
          0 0 0 
          0 0 0 
          0 0 0 
          0 0 0 
          0 0 0 
          0 0 0 
          0 0 0 
          0 0 0 
          0 0 0 
          0 0 0 
          0 0 0 
          0 0 0 
          0 0 0 
          0 0 0 
          0 0 0 
          0 0 0 
          0 0 0 
          0 0 0 
          0 0 0 
          0 0 0 
          0 0 0 
          0 0 0 
          0 0 0 
          0 0 0 
          0 0 0 
          0 0 0 
          0 0 0 
          0 0 0 
          0 0 0 
          0 0 0 
          0 0 0 
          0 0 0 
          0 0 0 
          0 0 0 
          0 0 0 
          0 0 0 
          0 0 0 
          0 0 0 
          0 0 0 
          0 0 0 
          0 0 0 
          0 0 0 
          0 0 0 
          0 0 0 
          0 0 0 
          0 0 0 
          0 0 0 
          0 0 0 
          0 0 0 
          0 0 0 
          0 0 0 
          0 0 0 
          0 0 0 
          0 0 0 
          0 0 0 
          0 0 0 
          0 0 0 
          0 0 0 
          0 0 0 
          0 0 0 
          0 0 0 
          0 0 0 
          0 0 0 
          0 0 0 
          0 0 0 
          0 0 0 
          0 0 0 
          0 0 0 
          0 0 0 
          0 0 0 
          0 0 0 
          0 0 0 
          0 0 0 
          0 0 0 
          0 0 0 
          0 0 0 
          0 0 0 
          0 0 0 
          0 0 0 
          0 0 0 
          0 0 0 
          0 0 0 
          0 0 0 
          0 0 0 
          0 0 0 
          0 0 0 
          0 0 0 
          0 0 0 
          0 0 0 
          0 0 0 
          0 0 0 
          0 0 0 
          0 0 0 
          0 0 0 
          0 0 0 
          0 0 0 
          0 0 0 
          0 0 0 
          0 0 0 
          0 0 0 
          0 0 0 
          0 0 0 
          0 0 0 
          0 0 0 
          0 0 0 
          0 0 0 
          0 0 0 
          0 0 0 
          0 0 0 
          0 0 0 
          0 0 0 
          0 0 0 
          0 0 0 
          0 0 0 
          0 0 0 
          0 0 0 
          0 0 0 
          0 0 0 
          0 0 0 
          0 0 0 
          0 0 0 
          0 0 0 
          0 0 0 
          0 0 0 
          0 0 0 
          0 0 0 
          0 0 0 
          0 0 0 
          0 0 0 
          0 0 0 
          0 0 0 
          0 0 0 
          0 0 0 
          0 0 0 
          0 0 0 
          0 0 0 
          0 0 0 
          0 0 0 
          0 0 0 
          0 0 0 
          0 0 0 
          0 0 0 
          0 0 0 
          0 0 0 
          0 0 0 
          0 0 0 
          0 0 0 
          0 0 0 
          0 0 0 
          0 0 0 
          0 0 0 
          0 0 0 
          0 0 0 
          0 0 0 
          0 0 0 
          0 0 0 
          0 0 0 
          0 0 0 
          0 0 0 
          0 0 0 
          0 0 0 
          0 0 0 
          0 0 0 
          0 0 0 
          0 0 0 
          0 0 0 
          0 0 0 
          0 0 0 
          0 0 0 
          0 0 0 
          0 0 0 
          0 0 0 
          0 0 0 
          0 0 0 
          0 0 0 
          0 0 0 
          0 0 0 
          0 0 0 
          0 0 0 
          0 0 0 
          0 0 0 
          0 0 0 
          0 0 0 
          0 0 0 
          0 0 0 
          0 0 0 
          0 0 0 
          0 0 0 
          0 0 0 
          0 0 0 
          0 0 0 
          0 0 0 
          0 0 0 
          0 0 0 
          0 0 0 
          0 0 0 
          0 0 0 
          0 0 0 
          0 0 0 
          0 0 0 
          0 0 0 
          0 0 0 
          0 0 0 
          0 0 0 
          0 0 0 
          0 0 0 
          0 0 0 
          0 0 0 
          0 0 0 
          0 0 0 
          0 0 0 
          0 0 0 
          0 0 0 
          0 0 0 
          0 0 0 
          0 0 0 
          0 0 0 
          0 0 0 
          0 0 0 
          0 0 0 
          0 0 0 
          0 0 0 
          0 0 0 
          0 0 0 
          0 0 0 
          0 0 0 
          0 0 0 
          0 0 0 
          0 0 0 
          0 0 0 
          0 0 0 
          0 0 0 
          0 0 0 
          0 0 0 
          0 0 0 
          0 0 0 
          0 0 0 
          0 0 0 
          0 0 0 
          0 0 0 
          0 0 0 
          0 0 0 
          0 0 0 
          0 0 0 
          0 0 0 
          0 0 0 
          0 0 0 
          0 0 0 
          0 0 0 
          0 0 0 
          0 0 0 
          0 0 0 
          0 0 0 
          0 0 0 
          0 0 0 
          0 0 0 
          0 0 0 
          0 0 0 
          0 0 0 
          0 0 0 
          0 0 0 
          0 0 0 
          0 0 0 
          0 0 0 
          0 0 0 
          0 0 0 
          0 0 0 
          0 0 0 
          0 0 0 
          0 0 0 
          0 0 0 
          0 0 0 
          0 0 0 
          0 0 0 
          0 0 0 
          0 0 0 
          0 0 0 
          0 0 0 
          0 0 0 
          0 0 0 
          0 0 0 
          0 0 0 
          0 0 0 
          0 0 0 
          0 0 0 
          0 0 0 
          0 0 0 
          0 0 0 
          0 0 0 
          0 0 0 
          0 0 0 
          0 0 0 
          0 0 0 
          0 0 0 
          0 0 0 
          0 0 0 
          0 0 0 
          0 0 0 
          0 0 0 
          0 0 0 
          0 0 0 
          0 0 0 
          0 0 0 
          0 0 0 
          0 0 0 
          0 0 0 
          0 0 0 
          0 0 0 
          0 0 0 
          0 0 0 
          0 0 0 
          0 0 0 
          0 0 0 
          0 0 0 
          0 0 0 
          0 0 0 
          0 0 0 
          0 0 0 
          0 0 0 
          0 0 0 
          0 0 0 
          0 0 0 
          0 0 0 
          0 0 0 
          0 0 0 
          0 0 0 
          0 0 0 
          0 0 0 
          0 0 0 
          0 0 0 
          0 0 0 
          0 0 0 
          0 0 0 
          0 0 0 
          0 0 0 
          0 0 0 
          0 0 0 
          0 0 0 
          0 0 0 
          0 0 0 
          0 0 0 
          0 0 0 
          0 0 0 
          0 0 0 
          0 0 0 
          0 0 0 
          0 0 0 
          0 0 0 
          0 0 0 
          0 0 0 
          0 0 0 
          0 0 0 
          0 0 0 
          0 0 0 
          0 0 0 
          0 0 0 
          0 0 0 
          0 0 0 
          0 0 0 
          0 0 0 
          0 0 0 
          0 0 0 
          0 0 0 
          0 0 0 
          0 0 0 
          0 0 0 
          0 0 0 
          0 0 0 
          0 0 0 
          0 0 0 
          0 0 0 
          0 0 0 
          0 0 0 
          0 0 0 
          0 0 0 
          0 0 0 
          0 0 0 
          0 0 0 
          0 0 0 
          0 0 0 
          0 0 0 
          0 0 0 
          0 0 0 
          0 0 0 
          0 0 0 
          0 0 0 
          0 0 0 
          0 0 0 
          0 0 0 
          0 0 0 
          0 0 0 
          0 0 0 
          0 0 0 
          0 0 0 
          0 0 0 
          0 0 0 
          0 0 0 
          0 0 0 
          0 0 0 
          0 0 0 
          0 0 0 
          0 0 0 
          0 0 0 
          0 0 0 
          0 0 0 
          0 0 0 
          0 0 0 
          0 0 0 
          0 0 0 
          0 0 0 
          0 0 0 
          0 0 0 
          0 0 0 
          0 0 0 
          0 0 0 
          0 0 0 
          0 0 0 
          0 0 0 
          0 0 0 
          0 0 0 
          0 0 0 
          0 0 0 
          0 0 0 
          0 0 0 
          0 0 0 
          0 0 0 
          0 0 0 
          0 0 0 
          0 0 0 
          0 0 0 
          0 0 0 
          0 0 0 
          0 0 0 
          0 0 0 
          0 0 0 
          0 0 0 
          0 0 0 
          0 0 0 
          0 0 0 
          0 0 0 
          0 0 0 
          0 0 0 
          0 0 0 
          0 0 0 
          0 0 0 
          0 0 0 
          0 0 0 
          0 0 0 
          0 0 0 
          0 0 0 
          0 0 0 
          0 0 0 
          0 0 0 
          0 0 0 
          0 0 0 
          0 0 0 
          0 0 0 
          0 0 0 
          0 0 0 
          0 0 0 
          0 0 0 
          0 0 0 
          0 0 0 
          0 0 0 
          0 0 0 
          0 0 0 
          0 0 0 
          0 0 0 
          0 0 0 
          0 0 0 
          0 0 0 
          0 0 0 
          0 0 0 
          0 0 0 
          0 0 0 
          0 0 0 
          0 0 0 
          0 0 0 
          0 0 0 
          0 0 0 
          0 0 0 
          0 0 0 
          0 0 0 
          0 0 0 
          0 0 0 
          0 0 0 
          0 0 0 
          0 0 0 
          0 0 0 
          0 0 0 
          0 0 0 
          0 0 0 
          0 0 0 
          0 0 0 
          0 0 0 
          0 0 0 
          0 0 0 
          0 0 0 
          0 0 0 
          0 0 0 
          0 0 0 
          0 0 0 
        </DataArray>
        <DataArray type="Float64" Name="id" NumberOfComponents="1" Format="ascii">
          39 
          425 
          987 
          456 
          815 
          889 
          608 
          707 
          41 
          289 
          719 
          338 
          622 
          709 
          894 
          950 
          952 
          12 
          351 
          365 
          592 
          637 
          813 
          30 
          281 
          578 
          790 
          945 
          233 
          441 
          548 
          58 
          187 
          324 
          333 
          515 
          659 
          705 
          712 
          829 
          886 
          122 
          249 
          290 
          393 
          522 
          733 
          107 
          242 
          933 
          339 
          446 
          734 
          503 
          766 
          773 
          852 
          877 
          938 
          756 
          295 
          392 
          26 
          123 
          134 
          152 
          549 
          746 
          251 
          449 
          545 
          583 
          908 
          574 
          232 
          389 
          498 
          748 
          758 
          229 
          371 
          428 
          466 
          484 
          526 
          544 
          135 
          322 
          375 
          516 
          722 
          907 
          81 
          138 
          182 
          800 
          823 
          810 
          955 
          983 
          142 
          189 
          256 
          625 
          760 
          317 
          753 
          803 
          171 
          191 
          202 
          344 
          413 
          590 
          661 
          913 
          7 
          83 
          614 
          184 
          287 
          765 
          910 
          166 
          193 
          279 
          352 
          486 
          820 
          928 
          151 
          247 
          11 
          119 
          173 
          700 
          56 
          112 
          194 
          501 
          792 
          116 
          759 
          822 
          915 
          185 
          382 
          628 
          651 
          844 
          993 
          497 
          582 
          833 
          949 
          313 
          591 
          715 
          761 
          932 
          25 
          386 
          785 
          13 
          36 
          120 
          294 
          570 
          787 
          918 
          90 
          153 
          832 
          9 
          158 
          378 
          535 
          743 
          245 
          253 
          301 
          462 
          646 
          727 
          0 
          768 