<?xml version="1.0"?>
<VTKFile type="UnstructuredGrid" version="0.1" byte_order="LittleEndian">
  <UnstructuredGrid>
    <Piece NumberOfPoints="1000" NumberOfCells="1000">
      <Points>
        <DataArray name="Position" type="Float64" NumberOfComponents="3" Format="ascii">
          6.15872e-05 0.00260194 0.0
          0.0120595 0.0366738 0.0
          0.0329169 0.0493598 0.0
          0.0593944 0.0157556 0.0
          0.00873529 0.0513398 0.0
          0.0751257 0.0295399 0.0
          0.0860245 0.0528408 0.0
          0.0757676 0.00641138 0.0
          0.0629319 0.0603715 0.0
          0.124416 0.0379803 0.0
          0.0594658 0.124422 0.0
          0.0513482 0.12277 0.0
          0.0477483 0.0688246 0.0
          0.0517488 0.0854111 0.0
          0.105419 0.115286 0.0
          0.0763295 0.0845572 0.0
          0.118395 0.106172 0.0
          0.0820999 0.120157 0.0
          0.103636 0.0978378 0.0
          0.0903714 0.0997369 0.0
          0.0968434 0.0745809 0.0
          0.183803 0.0418801 0.0
          0.183101 0.00394252 0.0
          0.152235 0.056584 0.0
          0.134935 0.00607313 0.0
          0.184335 0.0585647 0.0
          0.162097 0.000963805 0.0
          0.134202 0.0497753 0.0
          0.211149 0.0424298 0.0
          0.203432 0.0332732 0.0
          0.216061 0.0177312 0.0
          0.187674 0.00489261 0.0
          0.203841 0.0322273 0.0
          0.227984 0.0473353 0.0
          0.24611 0.00367462 0.0
          0.222937 0.0496583 0.0
          0.160799 0.115704 0.0
          0.153392 0.11194 0.0
          0.170883 0.124632 0.0
          0.134385 0.114303 0.0
          0.225527 0.112016 0.0
          0.204018 0.0636444 0.0
          0.213593 0.1188 0.0
          0.234331 0.0972716 0.0
          0.243679 0.074306 0.0
          0.246866 0.111851 0.0
          0.216491 0.0710009 0.0
          0.0763162 0.15784 0.0
          0.0743911 0.142292 0.0
          0.112937 0.150318 0.0
          0.102303 0.147197 0.0
          0.110103 0.145573 0.0
          0.120154 0.138342 0.0
          0.118673 0.164566 0.0
          0.121927 0.172037 0.0
          0.0313064 0.232797 0.0
          0.00187598 0.215054 0.0
          0.0228156 0.239125 0.0
          0.0586552 0.204995 0.0
          0.0541148 0.234204 0.0
          0.0608982 0.202056 0.0
          0.110159 0.214687 0.0
          0.0673493 0.233017 0.0
          0.0922765 0.197887 0.0
          0.11295 0.190264 0.0
          0.0720124 0.208408 0.0
          0.113402 0.191094 0.0
          0.139465 0.136806 0.0
          0.235441 0.126182 0.0
          0.188903 0.183346 0.0
          0.197155 0.182074 0.0
          0.166786 0.232442 0.0
          0.194988 0.221738 0.0
          0.223492 0.241359 0.0
          0.247045 0.194053 0.0
          0.266002 0.0257782 0.0
          0.294519 0.0347567 0.0
          0.272768 0.0233643 0.0
          0.284068 0.00841356 0.0
          0.296727 0.061215 0.0
          0.306545 0.0475279 0.0
          0.276069 0.0567062 0.0
          0.372299 0.0454517 0.0
          0.369845 0.0455625 0.0
          0.328863 0.0154805 0.0
          0.363653 0.011899 0.0
          0.36123 0.0273471 0.0
          0.286339 0.0758631 0.0
          0.25722 0.0644369 0.0
          0.3082 0.104552 0.0
          0.30799 0.0894496 0.0
          0.374603 0.124257 0.0
          0.313811 0.100196 0.0
          0.359858 0.0791093 0.0
          0.384665 0.00714699 0.0
          0.435565 0.006675 0.0
          0.397683 0.0204183 0.0
          0.412035 0.0327077 0.0
          0.425422 0.0402298 0.0
          0.487825 0.0284146 0.0
          0.465842 0.00486752 0.0
          0.474011 0.0219663 0.0
          0.413598 0.0636989 0.0
          0.434622 0.116117 0.0
          0.467951 0.0954219 0.0
          0.465274 0.120371 0.0
          0.465002 0.0862608 0.0
          0.482854 0.116507 0.0
          0.493711 0.082619 0.0
          0.452707 0.117135 0.0
          0.461894 0.120943 0.0
          0.253821 0.159075 0.0
          0.344013 0.17865 0.0
          0.351487 0.17525 0.0
          0.3181 0.17927 0.0
          0.367927 0.177194 0.0
          0.329392 0.14231 0.0
          0.345685 0.178599 0.0
          0.298586 0.202791 0.0
          0.293312 0.189569 0.0
          0.268363 0.228841 0.0
          0.304626 0.190927 0.0
          0.267585 0.229191 0.0
          0.278615 0.234522 0.0
          0.366159 0.221866 0.0
          0.349733 0.221833 0.0
          0.360634 0.249539 0.0
          0.363591 0.247624 0.0
          0.361252 0.24943 0.0
          0.428293 0.175698 0.0
          0.433 0.183722 0.0
          0.395463 0.138331 0.0
          0.416099 0.181186 0.0
          0.447432 0.18704 0.0
          0.439802 0.181279 0.0
          0.398684 0.247471 0.0
          0.396256 0.245493 0.0
          0.433546 0.240071 0.0
          0.431029 0.187858 0.0
          0.398563 0.197365 0.0
          0.469578 0.201661 0.0
          0.000499261 0.258496 0.0
          0.0550761 0.262791 0.0
          0.0379602 0.272189 0.0
          0.0662285 0.250817 0.0
          0.118496 0.269719 0.0
          0.0938561 0.30345 0.0
          0.0705223 0.286399 0.0
          0.00655891 0.338502 0.0
          0.0350398 0.324391 0.0
          0.0926843 0.341724 0.0
          0.0989135 0.336221 0.0
          0.112771 0.341687 0.0
          0.0768048 0.32157 0.0
          0.169856 0.258067 0.0
          0.130246 0.255682 0.0
          0.247138 0.269586 0.0
          0.224363 0.296443 0.0
          0.203562 0.304288 0.0
          0.212927 0.303488 0.0
          0.188609 0.301609 0.0
          0.130767 0.354676 0.0
          0.172757 0.355009 0.0
          0.133591 0.363598 0.0
          0.173621 0.318865 0.0
          0.201689 0.320175 0.0
          0.239032 0.317517 0.0
          0.0568233 0.403763 0.0
          0.0248706 0.424485 0.0
          0.00851986 0.407714 0.0
          0.0890511 0.404991 0.0
          0.115554 0.413811 0.0
          0.113297 0.379101 0.0
          0.0703382 0.434136 0.0
          0.0338696 0.442501 0.0
          0.044746 0.451495 0.0
          0.119343 0.483918 0.0
          0.167464 0.387062 0.0
          0.18746 0.412425 0.0
          0.138073 0.380054 0.0
          0.210288 0.380708 0.0
          0.235268 0.393053 0.0
          0.231269 0.402836 0.0
          0.15782 0.493672 0.0
          0.142406 0.465781 0.0
          0.144245 0.438958 0.0
          0.187399 0.441307 0.0
          0.168366 0.447583 0.0
          0.182141 0.45271 0.0
          0.191338 0.494889 0.0
          0.210838 0.495779 0.0
          0.230371 0.446542 0.0
          0.32306 0.308061 0.0
          0.332399 0.272163 0.0
          0.318935 0.274381 0.0
          0.277949 0.358027 0.0
          0.268563 0.342284 0.0
          0.293541 0.33969 0.0
          0.256448 0.349327 0.0
          0.276061 0.35045 0.0
          0.303957 0.332568 0.0
          0.260747 0.333818 0.0
          0.348625 0.347285 0.0
          0.360038 0.325915 0.0
          0.371789 0.348016 0.0
          0.412756 0.308478 0.0
          0.422839 0.285978 0.0
          0.435371 0.253803 0.0
          0.385231 0.259465 0.0
          0.418061 0.297689 0.0
          0.463958 0.311551 0.0
          0.451937 0.260386 0.0
          0.463895 0.303394 0.0
          0.481153 0.250486 0.0
          0.455198 0.283487 0.0
          0.383234 0.345813 0.0
          0.440618 0.325598 0.0
          0.495032 0.314914 0.0
          0.450378 0.335905 0.0
          0.448175 0.32313 0.0
          0.485798 0.318919 0.0
          0.471614 0.357924 0.0
          0.464534 0.346971 0.0
          0.480346 0.313718 0.0
          0.469518 0.36618 0.0
          0.278029 0.419975 0.0
          0.278899 0.418902 0.0
          0.262836 0.399368 0.0
          0.357571 0.38988 0.0
          0.341225 0.387932 0.0
          0.318928 0.401191 0.0
          0.333963 0.43023 0.0
          0.330095 0.418568 0.0
          0.259674 0.455204 0.0
          0.289662 0.442679 0.0
          0.351096 0.481474 0.0
          0.319461 0.472831 0.0
          0.354426 0.46694 0.0
          0.337938 0.448248 0.0
          0.41155 0.381578 0.0
          0.432961 0.39434 0.0
          0.418465 0.41668 0.0
          0.43062 0.381612 0.0
          0.449906 0.428869 0.0
          0.479424 0.428091 0.0
          0.450951 0.390476 0.0
          0.403557 0.44562 0.0
          0.43183 0.496122 0.0
          0.429003 0.466184 0.0
          0.392691 0.455306 0.0
          0.467747 0.446235 0.0
          0.475632 0.499292 0.0
          0.518637 0.0547488 0.0
          0.516574 0.0548061 0.0
          0.55917 0.000600762 0.0
          0.523319 0.0541845 0.0
          0.566878 0.0610048 0.0
          0.593462 0.0396566 0.0
          0.560324 0.114843 0.0
          0.554973 0.07595 0.0
          0.550199 0.0705117 0.0
          0.530008 0.0939882 0.0
          0.542107 0.116018 0.0
          0.622531 0.0635582 0.0
          0.612781 0.0692813 0.0
          0.572934 0.112855 0.0
          0.605237 0.101348 0.0
          0.601966 0.0706756 0.0
          0.596969 0.114254 0.0
          0.673968 0.0292528 0.0
          0.661363 0.0122319 0.0
          0.681058 0.0393777 0.0
          0.632178 0.0350452 0.0
          0.692141 0.0422641 0.0
          0.742919 0.0302003 0.0
          0.690063 0.0151836 0.0
          0.697454 0.0560721 0.0
          0.69687 0.0522852 0.0
          0.628413 0.101117 0.0
          0.650532 0.0757546 0.0
          0.626933 0.0718661 0.0
          0.710646 0.112311 0.0
          0.733644 0.098462 0.0
          0.705814 0.0853693 0.0
          0.723531 0.123036 0.0
          0.690743 0.122505 0.0
          0.518311 0.164574 0.0
          0.541531 0.173488 0.0
          0.520572 0.171669 0.0
          0.617482 0.138947 0.0
          0.624253 0.166193 0.0
          0.567843 0.139871 0.0
          0.582134 0.130503 0.0
          0.51496 0.232279 0.0
          0.541965 0.206265 0.0
          0.538927 0.220479 0.0
          0.507809 0.20304 0.0
          0.538933 0.239144 0.0
          0.551432 0.187801 0.0
          0.561845 0.199847 0.0
[...]
      <PointData Scalars="scalars">
        <DataArray type="Float64" Name="velocity" NumberOfComponents="3" Format="ascii">
          0 0 0 
          0 0 0 
          0 0 0 
          0 0 0 
          0 0 0 
          0 0 0 
          0 0 0 
          0 0 0 
          0 0 0 
          0 0 0 
          0 0 0 
          0 0 0 
          0 0 0 
          0 0 0 
          0 0 0 
          0 0 0 
          0 0 0 
          0 0 0 
          0 0 0 
          0 0 0 
          0 0 0 
          0 0 0 
          0 0 0 
          0 0 0 
          0 0 0 
          0 0 0 
          0 0 0 
          0 0 0 
          0 0 0 
          0 0 0 
          0 0 0 
          0 0 0 
          0 0 0 
          0 0 0 
          0 0 0 
          0 0 0 
          0 0 0 
          0 0 0 
          0 0 0 
          0 0 0 
          0 0 0 
          0 0 0 
          0 0 0 
          0 0 0 
          0 0 0 
          0 0 0 
          0 0 0 
          0 0 0 
          0 0 0 
          0 0 0 
          0 0 0 
          0 0 0 
          0 0 0 
          0 0 0 
          0 0 0 
          0 0 0 
          0 0 0 
          0 0 0 
          0 0 0 
          0 0 0 
          0 0 0 
          0 0 0 
          0 0 0 
          0 0 0 
          0 0 0 
          0 0 0 
          0 0 0 
          0 0 0 
          0 0 0 
          0 0 0 
          0 0 0 
          0 0 0 
          0 0 0 
          0 0 0 
          0 0 0 
          0 0 0 
          0 0 0 
          0 0 0 
          0 0 0 
          0 0 0 
          0 0 0 
          0 0 0 
          0 0 0 
          0 0 0 
          0 0 0 
          0 0 0 
          0 0 0 
          0 0 0 
          0 0 0 
          0 0 0 
          0 0 0 
          0 0 0 
          0 0 0 
          0 0 0 
          0 0 0 
          0 0 0 
          0 0 0 
          0 0 0 
          0 0 0 
          0 0 0 
          0 0 0 
          0 0 0 
          0 0 0 
          0 0 0 
          0 0 0 
          0 0 0 
          0 0 0 
          0 0 0 
          0 0 0 
          0 0 0 
          0 0 0 
          0 0 0 
          0 0 0 
          0 0 0 
          0 0 0 
          0 0 0 
          0 0 0 
          0 0 0 
          0 0 0 
          0 0 0 
          0 0 0 
          0 0 0 
          0 0 0 
          0 0 0 
          0 0 0 
          0 0 0 
          0 0 0 
          0 0 0 
          0 0 0 
          0 0 0 
          0 0 0 
          0 0 0 
          0 0 0 
          0 0 0 
          0 0 0 
          0 0 0 
          0 0 0 
          0 0 0 
          0 0 0 
          0 0 0 
          0 0 0 
          0 0 0 
          0 0 0 
          0 0 0 
          0 0 0 
          0 0 0 
          0 0 0 
          0 0 0 
          0 0 0 
          0 0 0 
          0 0 0 
          0 0 0 
          0 0 0 
          0 0 0 
          0 0 0 
          0 0 0 
          0 0 0 
          0 0 0 
          0 0 0 
          0 0 0 
          0 0 0 
          0 0 0 
          0 0 0 
          0 0 0 
          0 0 0 
          0 0 0 
          0 0 0 
          0 0 0 
          0 0 0 
          0 0 0 
          0 0 0 
          0 0 0 
          0 0 0 
          0 0 0 
          0 0 0 
          0 0 0 
          0 0 0 
          0 0 0 
          0 0 0 
          0 0 0 
          0 0 0 
          0 0 0 
          0 0 0 
          0 0 0 
          0 0 0 
          0 0 0 
          0 0 0 
          0 0 0 
          0 0 0 
          0 0 0 
          0 0 0 
          0 0 0 
          0 0 0 
          0 0 0 
          0 0 0 
          0 0 0 
          0 0 0 
          0 0 0 
          0 0 0 
          0 0 0 
          0 0 0 
          0 0 0 
          0 0 0 
          0 0 0 
          0 0 0 
          0 0 0 
          0 0 0 
          0 0 0 
          0 0 0 
          0 0 0 
          0 0 0 
          0 0 0 
          0 0 0 
          0 0 0 
          0 0 0 
          0 0 0 
          0 0 0 
          0 0 0 
          0 0 0 
          0 0 0 
          0 0 0 
          0 0 0 
          0 0 0 
          0 0 0 
          0 0 0 
          0 0 0 
          0 0 0 
          0 0 0 
          0 0 0 
          0 0 0 
          0 0 0 
          0 0 0 
          0 0 0 
          0 0 0 
          0 0 0 
          0 0 0 
          0 0 0 
          0 0 0 
          0 0 0 
          0 0 0 
          0 0 0 
          0 0 0 
          0 0 0 
          0 0 0 
          0 0 0 
          0 0 0 
          0 0 0 
          0 0 0 
          0 0 0 
          0 0 0 
          0 0 0 
          0 0 0 
          0 0 0 
          0 0 0 
          0 0 0 
          0 0 0 
          0 0 0 
          0 0 0 
          0 0 0 
          0 0 0 
          0 0 0 
          0 0 0 
          0 0 0 
          0 0 0 
          0 0 0 
          0 0 0 
          0 0 0 
          0 0 0 
          0 0 0 
          0 0 0 
          0 0 0 
          0 0 0 
          0 0 0 
          0 0 0 
          0 0 0 
          0 0 0 
          0 0 0 
          0 0 0 
          0 0 0 
          0 0 0 
          0 0 0 
          0 0 0 
          0 0 0 
          0 0 0 
          0 0 0 
          0 0 0 
          0 0 0 
          0 0 0 
          0 0 0 
          0 0 0 
          0 0 0 
          0 0 0 
          0 0 0 
          0 0 0 
          0 0 0 
          0 0 0 
          0 0 0 
          0 0 0 
          0 0 0 
          0 0 0 
          0 0 0 
          0 0 0 
          0 0 0 
          0 0 0 
          0 0 0 
          0 0 0 
          0 0 0 
          0 0 0 
          0 0 0 
          0 0 0 
          0 0 0 
          0 0 0 
          0 0 0 
          0 0 0 
          0 0 0 
          0 0 0 
          0 0 0 
          0 0 0 
          0 0 0 
          0 0 0 
          0 0 0 
          0 0 0 
          0 0 0 
          0 0 0 
          0 0 0 
          0 0 0 
          0 0 0 
          0 0 0 
          0 0 0 
          0 0 0 
          0 0 0 
          0 0 0 
          0 0 0 
          0 0 0 
          0 0 0 
          0 0 0 
          0 0 0 
          0 0 0 
          0 0 0 
          0 0 0 
          0 0 0 
          0 0 0 
          0 0 0 
          0 0 0 
          0 0 0 
          0 0 0 
          0 0 0 
          0 0 0 
          0 0 0 
          0 0 0 
          0 0 0 
          0 0 0 
          0 0 0 
          0 0 0 
          0 0 0 
          0 0 0 
          0 0 0 
          0 0 0 
          0 0 0 
          0 0 0 
          0 0 0 
          0 0 0 
          0 0 0 
          0 0 0 
          0 0 0 
          0 0 0 
          0 0 0 
          0 0 0 
          0 0 0 
          0 0 0 
          0 0 0 
          0 0 0 
          0 0 0 
          0 0 0 
          0 0 0 
          0 0 0 
          0 0 0 
          0 0 0 
          0 0 0 
          0 0 0 
          0 0 0 
          0 0 0 
          0 0 0 
          0 0 0 
          0 0 0 
          0 0 0 
          0 0 0 
          0 0 0 
          0 0 0 
          0 0 0 
          0 0 0 
          0 0 0 
          0 0 0 
          0 0 0 
          0 0 0 
          0 0 0 
          0 0 0 
          0 0 0 
          0 0 0 
          0 0 0 
          0 0 0 
          0 0 0 
          0 0 0 
          0 0 0 
          0 0 0 
          0 0 0 
          0 0 0 
          0 0 0 
          0 0 0 
          0 0 0 
          0 0 0 
          0 0 0 
          0 0 0 
          0 0 0 
          0 0 0 
          0 0 0 
          0 0 0 
          0 0 0 
          0 0 0 
          0 0 0 
          0 0 0 
          0 0 0 
          0 0 0 
          0 0 0 
          0 0 0 
          0 0 0 
          0 0 0 
          0 0 0 
          0 0 0 
          0 0 0 
          0 0 0 
          0 0 0 
          0 0 0 
          0 0 0 
          0 0 0 
          0 0 0 
          0 0 0 
          0 0 0 
          0 0 0 
          0 0 0 
          0 0 0 
          0 0 0 
          0 0 0 
          0 0 0 
          0 0 0 
          0 0 0 
          0 0 0 
          0 0 0 
          0 0 0 
          0 0 0 
          0 0 0 
          0 0 0 
          0 0 0 
          0 0 0 
          0 0 0 
          0 0 0 
          0 0 0 
          0 0 0 
          0 0 0 
          0 0 0 
          0 0 0 
          0 0 0 
          0 0 0 
          0 0 0 
          0 0 0 
          0 0 0 
          0 0 0 
          0 0 0 
          0 0 0 
          0 0 0 
          0 0 0 
          0 0 0 
          0 0 0 
          0 0 0 
          0 0 0 
          0 0 0 
          0 0 0 
          0 0 0 
          0 0 0 
          0 0 0 
          0 0 0 
          0 0 0 
          0 0 0 
          0 0 0 
          0 0 0 
          0 0 0 
          0 0 0 
          0 0 0 
          0 0 0 
          0 0 0 
          0 0 0 
          0 0 0 
          0 0 0 
          0 0 0 
          0 0 0 
          0 0 0 
          0 0 0 
          0 0 0 
          0 0 0 
          0 0 0 
          0 0 0 
          0 0 0 
          0 0 0 
          0 0 0 
          0 0 0 
          0 0 0 
          0 0 0 
          0 0 0 
          0 0 0 
          0 0 0 
          0 0 0 
          0 0 0 
          0 0 0 
          0 0 0 
          0 0 0 
          0 0 0 
          0 0 0 
          0 0 0 
          0 0 0 
          0 0 0 
          0 0 0 
          0 0 0 
          0 0 0 
          0 0 0 
          0 0 0 
          0 0 0 
          0 0 0 
          0 0 0 
          0 0 0 
          0 0 0 
          0 0 0 
          0 0 0 
          0 0 0 
          0 0 0 
          0 0 0 
          0 0 0 
          0 0 0 
          0 0 0 
          0 0 0 
          0 0 0 
          0 0 0 
          0 0 0 
          0 0 0 
          0 0 0 
          0 0 0 
          0 0 0 
          0 0 0 
          0 0 0 
          0 0 0 
          0 0 0 
          0 0 0 
          0 0 0 
          0 0 0 
          0 0 0 
          0 0 0 
          0 0 0 
          0 0 0 
          0 0 0 
          0 0 0 
          0 0 0 
          0 0 0 
          0 0 0 
          0 0 0 
          0 0 0 
          0 0 0 
          0 0 0 
          0 0 0 
          0 0 0 
          0 0 0 
          0 0 0 
          0 0 0 
          0 0 0 
          0 0 0 
          0 0 0 
          0 0 0 
          0 0 0 
          0 0 0 
          0 0 0 
          0 0 0 
          0 0 0 
          0 0 0 
          0 0 0 
          0 0 0 
          0 0 0 
          0 0 0 
          0 0 0 
          0 0 0 
          0 0 0 
          0 0 0 
          0 0 0 
          0 0 0 
          0 0 0 
          0 0 0 
          0 0 0 
          0 0 0 
          0 0 0 
          0 0 0 
          0 0 0 
          0 0 0 
          0 0 0 
          0 0 0 
          0 0 0 
          0 0 0 
          0 0 0 
          0 0 0 
          0 0 0 
          0 0 0 
          0 0 0 
          0 0 0 
          0 0 0 
          0 0 0 
          0 0 0 
          0 0 0 
          0 0 0 
          0 0 0 
          0 0 0 
          0 0 0 
          0 0 0 
          0 0 0 
          0 0 0 
          0 0 0 
          0 0 0 
          0 0 0 
          0 0 0 
          0 0 0 
          0 0 0 
          0 0 0 
          0 0 0 
          0 0 0 
          0 0 0 
          0 0 0 
          0 0 0 
          0 0 0 
          0 0 0 
          0 0 0 
          0 0 0 
          0 0 0 
          0 0 0 
          0 0 0 
          0 0 0 
          0 0 0 
          0 0 0 
          0 0 0 
          0 0 0 
          0 0 0 
          0 0 0 
          0 0 0 
          0 0 0 
          0 0 0 
          0 0 0 
          0 0 0 
          0 0 0 
          0 0 0 
          0 0 0 
          0 0 0 
          0 0 0 
          0 0 0 
          0 0 0 
          0 0 0 
          0 0 0 
          0 0 0 
          0 0 0 
          0 0 0 
          0 0 0 
          0 0 0 
          0 0 0 
          0 0 0 
          0 0 0 
          0 0 0 
          0 0 0 
          0 0 0 
          0 0 0 
          0 0 0 
          0 0 0 
          0 0 0 
          0 0 0 
          0 0 0 
          0 0 0 
          0 0 0 
          0 0 0 
          0 0 0 
          0 0 0 
          0 0 0 
          0 0 0 
          0 0 0 
          0 0 0 
          0 0 0 
          0 0 0 
          0 0 0 
          0 0 0 
          0 0 0 
          0 0 0 
          0 0 0 
          0 0 0 
          0 0 0 
          0 0 0 
          0 0 0 
          0 0 0 
          0 0 0 
          0 0 0 
          0 0 0 
          0 0 0 
          0 0 0 
          0 0 0 
          0 0 0 
          0 0 0 
          0 0 0 
          0 0 0 
          0 0 0 
          0 0 0 
          0 0 0 
          0 0 0 
          0 0 0 
          0 0 0 
          0 0 0 
          0 0 0 
          0 0 0 
          0 0 0 
          0 0 0 
          0 0 0 
          0 0 0 
          0 0 0 
          0 0 0 
          0 0 0 
          0 0 0 
          0 0 0 
          0 0 0 
          0 0 0 
          0 0 0 
          0 0 0 
          0 0 0 
          0 0 0 
          0 0 0 
          0 0 0 
          0 0 0 
          0 0 0 
          0 0 0 
          0 0 0 
          0 0 0 
          0 0 0 
          0 0 0 
          0 0 0 
          0 0 0 
          0 0 0 
          0 0 0 
          0 0 0 
          0 0 0 
          0 0 0 
          0 0 0 
          0 0 0 
          0 0 0 
          0 0 0 
          0 0 0 
          0 0 0 
          0 0 0 
          0 0 0 
          0 0 0 
          0 0 0 
          0 0 0 
          0 0 0 
          0 0 0 
          0 0 0 
          0 0 0 
          0 0 0 
          0 0 0 
          0 0 0 
          0 0 0 
          0 0 0 
          0 0 0 
          0 0 0 
          0 0 0 
          0 0 0 
          0 0 0 
          0 0 0 
          0 0 0 
          0 0 0 
          0 0 0 
          0 0 0 
          0 0 0 
          0 0 0 
          0 0 0 
          0 0 0 
          0 0 0 
          0 0 0 
          0 0 0 
          0 0 0 
          0 0 0 
          0 0 0 
          0 0 0 
          0 0 0 
          0 0 0 
          0 0 0 
          0 0 0 
          0 0 0 
          0 0 0 
          0 0 0 
          0 0 0 
          0 0 0 
          0 0 0 
          0 0 0 
          0 0 0 
          0 0 0 
          0 0 0 
          0 0 0 
          0 0 0 
          0 0 0 
          0 0 0 
          0 0 0 
          0 0 0 
          0 0 0 
          0 0 0 
          0 0 0 
          0 0 0 
          0 0 0 
          0 0 0 
          0 0 0 
          0 0 0 
          0 0 0 
          0 0 0 
          0 0 0 
          0 0 0 
          0 0 0 
          0 0 0 
          0 0 0 
          0 0 0 
          0 0 0 
          0 0 0 
          0 0 0 
          0 0 0 
          0 0 0 
          0 0 0 
          0 0 0 
          0 0 0 
          0 0 0 
          0 0 0 
          0 0 0 
          0 0 0 
          0 0 0 
          0 0 0 
          0 0 0 
          0 0 0 
          0 0 0 
          0 0 0 
          0 0 0 
          0 0 0 
          0 0 0 
          0 0 0 
          0 0 0 
          0 0 0 
          0 0 0 
          0 0 0 
          0 0 0 
          0 0 0 
          0 0 0 
          0 0 0 
          0 0 0 
          0 0 0 
          0 0 0 
          0 0 0 
          0 0 0 
          0 0 0 
          0 0 0 
          0 0 0 
          0 0 0 
          0 0 0 
          0 0 0 
          0 0 0 
          0 0 0 
          0 0 0 
          0 0 0 
          0 0 0 
          0 0 0 
          0 0 0 
          0 0 0 
          0 0 0 
          0 0 0 
          0 0 0 
          0 0 0 
          0 0 0 
          0 0 0 
          0 0 0 
          0 0 0 
          0 0 0 
          0 0 0 
          0 0 0 
          0 0 0 
          0 0 0 
          0 0 0 
          0 0 0 
          0 0 0 
          0 0 0 
          0 0 0 
          0 0 0 
          0 0 0 
          0 0 0 
          0 0 0 
          0 0 0 
          0 0 0 
          0 0 0 
          0 0 0 
          0 0 0 
          0 0 0 
          0 0 0 
          0 0 0 
          0 0 0 
          0 0 0 
          0 0 0 
          0 0 0 
          0 0 0 
          0 0 0 
          0 0 0 
          0 0 0 
          0 0 0 
          0 0 0 
          0 0 0 
          0 0 0 
          0 0 0 
          0 0 0 
          0 0 0 
          0 0 0 
          0 0 0 
          0 0 0 
          0 0 0 
          0 0 0 
          0 0 0 
          0 0 0 
          0 0 0 
          0 0 0 
          0 0 0 
          0 0 0 
          0 0 0 
          0 0 0 
          0 0 0 
          0 0 0 
          0 0 0 
          0 0 0 
          0 0 0 
          0 0 0 
          0 0 0 
          0 0 0 
          0 0 0 
          0 0 0 
          0 0 0 
          0 0 0 
          0 0 0 
          0 0 0 
          0 0 0 
          0 0 0 
          0 0 0 
          0 0 0 
          0 0 0 
          0 0 0 
          0 0 0 
          0 0 0 
          0 0 0 
          0 0 0 
          0 0 0 
          0 0 0 
          0 0 0 
          0 0 0 
          0 0 0 
          0 0 0 
          0 0 0 
          0 0 0 
          0 0 0 
          0 0 0 
          0 0 0 
          0 0 0 
          0 0 0 
          0 0 0 
          0 0 0 
          0 0 0 
          0 0 0 
          0 0 0 
          0 0 0 
          0 0 0 
          0 0 0 
          0 0 0 
          0 0 0 
          0 0 0 
          0 0 0 
          0 0 0 
          0 0 0 
          0 0 0 
          0 0 0 
          0 0 0 
          0 0 0 
          0 0 0 
          0 0 0 
          0 0 0 
          0 0 0 
          0 0 0 
          0 0 0 
          0 0 0 
          0 0 0 
          0 0 0 
          0 0 0 
          0 0 0 
          0 0 0 
          0 0 0 
        </DataArray>
        <DataArray type="Float64" Name="id" NumberOfComponents="1" Format="ascii">
          0 
          30 
          86 
          412 
          861 
          125 
          389 
          695 
          845 
          904 
          71 
          91 
          133 
          258 
          81 
          159 
          361 
          460 
          743 
          777 
          991 
          38 
          92 
          322 
          326 
          831 
          860 
          898 
          12 
          238 
          345 
          357 
          397 
          600 
          717 
          884 
          391 
          603 
          920 
          956 
          43 
          104 
          199 
          622 
          855 
          890 
          899 
          53 
          93 
          196 
          394 
          509 
          643 
          770 
          992 
          143 
          379 
          461 
          654 
          690 
          773 
          246 
          303 
          485 
          712 
          727 
          801 
          442 
          5 
          210 
          491 
          780 
          55 
          152 
          952 
          108 
          211 
          721 
          732 
          753 
          915 
          988 
          268 
          360 
          487 
          553 
          661 
          228 
          440 
          544 
          679 
          528 
          736 
          998 
          105 
          269 
          663 
          772 
          895 
          565 
          796 
          892 
          170 
          648 
          2 
          79 
          270 
          313 
          317 
          340 
          527 
          335 
          90 
          232 
          297 
          519 
          678 
          950 
          148 
          204 
          602 
          701 
          722 
          850 
          422 
          476 
          512 
          621 
          647 
          27 
          264 
          448 
          802 
          60 
          456 
          469 
          572 
          843 
          864 
          989 
          726 
          537 
          871 
          919 
          82 
          227 
          550 
          685 
          157 
          548 
          89 
          294 
          591 
          706 
          423 
          638 
          481 
          576 
          653 
          692 
          805 
          226 
          384 
          698 
          876 
          646 
          877 
          744 
          769 
          778 
          42 
          470 
          729 
          819 
          570 
          649 
          536 
          287 
          295 
          467 
          1 
          314 
          443 
          44 
          67 
          70 