<?xml version="1.0"?>
<VTKFile type="UnstructuredGrid" version="0.1" byte_order="LittleEndian">
  <UnstructuredGrid>
    <Piece NumberOfPoints="1000" NumberOfCells="1000">
      <Points>
        <DataArray name="Position" type="Float64" NumberOfComponents="3" Format="ascii">
          0.0308859 0.000783675 0.0
          0.0243052 0.0536892 0.0
          0.0271985 0.00153782 0.0
          0.0769145 0.0376357 0.0
          0.0687879 0.000619989 0.0
          0.102229 0.0243937 0.0
          0.0397367 0.111112 0.0
          0.0520573 0.0668289 0.0
          0.00335965 0.0870172 0.0
          0.0268284 0.065528 0.0
          0.00377917 0.109329 0.0
          0.120579 0.0760774 0.0
          0.154433 0.0562614 0.0
          0.174761 0.0364279 0.0
          0.187212 0.0450253 0.0
          0.18273 0.00843245 0.0
          0.141585 0.0427399 0.0
          0.179096 0.00524209 0.0
          0.131812 0.0539819 0.0
          0.158289 0.0238443 0.0
          0.19706 0.0206786 0.0
          0.233392 0.0338259 0.0
          0.167208 0.0888195 0.0
          0.138134 0.122069 0.0
          0.185221 0.122457 0.0
          0.126288 0.0904082 0.0
          0.20412 0.120553 0.0
          0.240201 0.0904417 0.0
          0.0414753 0.152422 0.0
          0.00390895 0.160075 0.0
          0.0325033 0.163371 0.0
          0.028254 0.16342 0.0
          0.0850809 0.178071 0.0
          0.0741795 0.150546 0.0
          0.112903 0.135992 0.0
          0.0889443 0.148263 0.0
          0.110458 0.160236 0.0
          0.0209683 0.24831 0.0
          0.0718196 0.193571 0.0
          0.119277 0.198062 0.0
          0.138813 0.155598 0.0
          0.136825 0.162871 0.0
          0.165478 0.139293 0.0
          0.246661 0.171116 0.0
          0.246196 0.128669 0.0
          0.195497 0.129555 0.0
          0.166988 0.225859 0.0
          0.164368 0.240518 0.0
          0.128878 0.227424 0.0
          0.173984 0.231718 0.0
          0.159755 0.206479 0.0
          0.24703 0.230123 0.0
          0.204854 0.212454 0.0
          0.212374 0.236261 0.0
          0.221252 0.207238 0.0
          0.270793 0.0252862 0.0
          0.251748 0.0537775 0.0
          0.33101 0.019975 0.0
          0.353876 0.0128722 0.0
          0.365881 0.0422748 0.0
          0.308413 0.0951031 0.0
          0.301358 0.0934359 0.0
          0.261968 0.0776554 0.0
          0.281482 0.0879204 0.0
          0.250409 0.117984 0.0
          0.337763 0.0658719 0.0
          0.348732 0.101712 0.0
          0.323337 0.107119 0.0
          0.398714 0.0580866 0.0
          0.41957 0.0485775 0.0
          0.397978 0.0253313 0.0
          0.494536 0.0143111 0.0
          0.45914 0.0249864 0.0
          0.499596 0.0164051 0.0
          0.494184 0.00832319 0.0
          0.473049 0.0391225 0.0
          0.485746 0.0324489 0.0
          0.497023 0.0102436 0.0
          0.45453 0.0413498 0.0
          0.432711 0.102784 0.0
          0.39069 0.0753224 0.0
          0.442889 0.0985131 0.0
          0.48354 0.0694816 0.0
          0.472616 0.122009 0.0
          0.44289 0.104589 0.0
          0.489704 0.0878322 0.0
          0.442399 0.0629888 0.0
          0.471244 0.0645077 0.0
          0.259096 0.142667 0.0
          0.302164 0.157838 0.0
          0.306303 0.142119 0.0
          0.277364 0.170016 0.0
          0.257359 0.134157 0.0
          0.302267 0.178549 0.0
          0.360428 0.141367 0.0
          0.368983 0.149047 0.0
          0.366944 0.163688 0.0
          0.353891 0.15561 0.0
          0.366962 0.149428 0.0
          0.305852 0.19467 0.0
          0.282508 0.211811 0.0
          0.343659 0.247619 0.0
          0.343873 0.22836 0.0
          0.316499 0.196378 0.0
          0.340041 0.226985 0.0
          0.320012 0.218083 0.0
          0.36143 0.246869 0.0
          0.329569 0.219812 0.0
          0.432233 0.164985 0.0
          0.38518 0.173766 0.0
          0.412956 0.132767 0.0
          0.393214 0.174027 0.0
          0.48223 0.134323 0.0
          0.493728 0.183692 0.0
          0.4379 0.175918 0.0
          0.403502 0.218648 0.0
          0.419197 0.224344 0.0
          0.417004 0.227545 0.0
          0.383877 0.224914 0.0
          0.393137 0.249058 0.0
          0.45331 0.198994 0.0
          0.496834 0.200343 0.0
          0.482817 0.218147 0.0
          0.497779 0.189027 0.0
          0.483074 0.204277 0.0
          0.458073 0.24276 0.0
          0.0238474 0.263138 0.0
          0.0551078 0.312443 0.0
          0.0482547 0.284346 0.0
          0.0247504 0.288489 0.0
          0.00668385 0.277448 0.0
          0.0931438 0.308878 0.0
          0.117617 0.255622 0.0
          0.091089 0.255903 0.0
          0.0764624 0.29517 0.0
          0.091914 0.254335 0.0
          0.050132 0.366831 0.0
          0.037181 0.340597 0.0
          0.0134877 0.314431 0.0
          0.0198101 0.325788 0.0
          0.0229913 0.318662 0.0
          0.00779838 0.328177 0.0
          0.0451858 0.313847 0.0
          0.108095 0.344625 0.0
          0.0902358 0.336875 0.0
          0.0883688 0.319169 0.0
          0.0897924 0.364795 0.0
          0.0920022 0.342223 0.0
          0.125299 0.27636 0.0
          0.131264 0.276356 0.0
          0.224405 0.278644 0.0
          0.137194 0.353725 0.0
          0.149255 0.361371 0.0
          0.164446 0.365795 0.0
          0.218949 0.364114 0.0
          0.243732 0.359084 0.0
          0.232292 0.332183 0.0
          0.188564 0.313726 0.0
          0.038717 0.418537 0.0
          0.100327 0.422382 0.0
          0.01682 0.498242 0.0
          0.0344862 0.494905 0.0
          0.0449731 0.477343 0.0
          0.120601 0.439046 0.0
          0.0755288 0.496712 0.0
          0.0657549 0.444575 0.0
          0.0635364 0.449766 0.0
          0.0803094 0.491025 0.0
          0.0806981 0.49616 0.0
          0.135699 0.39387 0.0
          0.131639 0.405799 0.0
          0.171291 0.408064 0.0
          0.21432 0.40143 0.0
          0.237304 0.416426 0.0
          0.208177 0.380794 0.0
          0.24181 0.397477 0.0
          0.243975 0.426853 0.0
          0.232836 0.396185 0.0
          0.186398 0.453988 0.0
          0.175063 0.485183 0.0
          0.164248 0.469689 0.0
          0.167212 0.458332 0.0
          0.148843 0.440114 0.0
          0.177072 0.474701 0.0
          0.146799 0.472446 0.0
          0.198633 0.457042 0.0
          0.228809 0.493854 0.0
          0.204972 0.474826 0.0
          0.220435 0.454136 0.0
          0.240821 0.450752 0.0
          0.300742 0.292923 0.0
          0.30021 0.274811 0.0
          0.287249 0.276766 0.0
          0.258518 0.266364 0.0
          0.253436 0.25603 0.0
          0.292858 0.252666 0.0
          0.346493 0.272037 0.0
          0.360737 0.25868 0.0
          0.361526 0.271027 0.0
          0.282116 0.314409 0.0
          0.289872 0.318336 0.0
          0.255733 0.35751 0.0
          0.344578 0.321125 0.0
          0.345802 0.371808 0.0
          0.316251 0.351753 0.0
          0.334007 0.340868 0.0
          0.419898 0.309246 0.0
          0.387968 0.255417 0.0
          0.436155 0.274267 0.0
          0.379418 0.306299 0.0
          0.40999 0.286508 0.0
          0.472989 0.282961 0.0
          0.471259 0.268828 0.0
          0.475559 0.284518 0.0
          0.491032 0.306572 0.0
          0.476808 0.25817 0.0
          0.488197 0.303959 0.0
          0.433375 0.355085 0.0
          0.414244 0.343202 0.0
          0.41358 0.318944 0.0
          0.46696 0.327974 0.0
          0.485461 0.319112 0.0
          0.301951 0.382339 0.0
          0.321739 0.385669 0.0
          0.369892 0.41674 0.0
          0.33953 0.3928 0.0
          0.332005 0.398348 0.0
          0.360427 0.409456 0.0
          0.366693 0.391816 0.0
          0.354448 0.431378 0.0
          0.270473 0.458307 0.0
          0.260707 0.468631 0.0
          0.269047 0.477621 0.0
          0.271946 0.441512 0.0
          0.251353 0.495706 0.0
          0.324656 0.490269 0.0
          0.357652 0.481545 0.0
          0.336017 0.448323 0.0
          0.389137 0.404875 0.0
          0.395515 0.382462 0.0
          0.454547 0.400245 0.0
          0.492246 0.376033 0.0
          0.451729 0.424978 0.0
          0.458313 0.430407 0.0
          0.479282 0.408585 0.0
          0.46844 0.411183 0.0
          0.420646 0.443796 0.0
          0.426582 0.46912 0.0
          0.395749 0.494839 0.0
          0.3824 0.46515 0.0
          0.425962 0.446377 0.0
          0.468078 0.471504 0.0
          0.443033 0.468947 0.0
          0.442552 0.465727 0.0
          0.441394 0.45892 0.0
          0.478596 0.46567 0.0
          0.545691 0.0261272 0.0
          0.613108 0.0525448 0.0
          0.583941 0.0383413 0.0
          0.566852 0.00128349 0.0
          0.571447 0.00209846 0.0
          0.510146 0.088045 0.0
          0.541201 0.0996473 0.0
          0.511296 0.0965755 0.0
          0.565128 0.100178 0.0
          0.621954 0.0652784 0.0
          0.623894 0.111407 0.0
          0.629321 0.00960354 0.0
          0.672183 0.0574616 0.0
          0.716403 0.0293135 0.0
          0.698666 0.0123159 0.0
          0.734145 0.0401425 0.0
          0.739396 0.00232716 0.0
          0.643223 0.101357 0.0
          0.665778 0.102813 0.0
          0.649658 0.120935 0.0
          0.699274 0.0966801 0.0
          0.708599 0.0776579 0.0
          0.698553 0.0637361 0.0
          0.735433 0.114015 0.0
          0.51483 0.18554 0.0
          0.562173 0.158662 0.0
          0.507906 0.1573 0.0
          0.553308 0.181012 0.0
          0.609043 0.163965 0.0
          0.612584 0.184462 0.0
          0.624276 0.169749 0.0
          0.566711 0.150908 0.0
          0.587241 0.175051 0.0
          0.551539 0.214478 0.0
          0.504879 0.226068 0.0
          0.518384 0.207414 0.0
          0.574898 0.202336 0.0
          0.613384 0.230011 0.0
          0.623296 0.187751 0.0
          0.594812 0.227542 0.0
          0.621576 0.232669 0.0
          0.64972 0.164779 0.0
          0.643529 0.127897 0.0
          0.644498 0.150087 0.0
          0.740275 0.174381 0.0
[...]
      <PointData Scalars="scalars">
        <DataArray type="Float64" Name="velocity" NumberOfComponents="3" Format="ascii">
          0 0 0 
          0 0 0 
          0 0 0 
          0 0 0 
          0 0 0 
          0 0 0 
          0 0 0 
          0 0 0 
          0 0 0 
          0 0 0 
          0 0 0 
          0 0 0 
          0 0 0 
          0 0 0 
          0 0 0 
          0 0 0 
          0 0 0 
          0 0 0 
          0 0 0 
          0 0 0 
          0 0 0 
          0 0 0 
          0 0 0 
          0 0 0 
          0 0 0 
          0 0 0 
          0 0 0 
          0 0 0 
          0 0 0 
          0 0 0 
          0 0 0 
          0 0 0 
          0 0 0 
          0 0 0 
          0 0 0 
          0 0 0 
          0 0 0 
          0 0 0 
          0 0 0 
          0 0 0 
          0 0 0 
          0 0 0 
          0 0 0 
          0 0 0 
          0 0 0 
          0 0 0 
          0 0 0 
          0 0 0 
          0 0 0 
          0 0 0 
          0 0 0 
          0 0 0 
          0 0 0 
          0 0 0 
          0 0 0 
          0 0 0 
          0 0 0 
          0 0 0 
          0 0 0 
          0 0 0 
          0 0 0 
          0 0 0 
          0 0 0 
          0 0 0 
          0 0 0 
          0 0 0 
          0 0 0 
          0 0 0 
          0 0 0 
          0 0 0 
          0 0 0 
          0 0 0 
          0 0 0 
          0 0 0 
          0 0 0 
          0 0 0 
          0 0 0 
          0 0 0 
          0 0 0 
          0 0 0 
          0 0 0 
          0 0 0 
          0 0 0 
          0 0 0 
          0 0 0 
          0 0 0 
          0 0 0 
          0 0 0 
          0 0 0 
          0 0 0 
          0 0 0 
          0 0 0 
          0 0 0 
          0 0 0 
          0 0 0 
          0 0 0 
          0 0 0 
          0 0 0 
          0 0 0 
          0 0 0 
          0 0 0 
          0 0 0 
          0 0 0 
          0 0 0 
          0 0 0 
          0 0 0 
          0 0 0 
          0 0 0 
          0 0 0 
          0 0 0 
          0 0 0 
          0 0 0 
          0 0 0 
          0 0 0 
          0 0 0 
          0 0 0 
          0 0 0 
          0 0 0 
          0 0 0 
          0 0 0 
          0 0 0 
          0 0 0 
          0 0 0 
          0 0 0 
          0 0 0 
          0 0 0 
          0 0 0 
          0 0 0 
          0 0 0 
          0 0 0 
          0 0 0 
          0 0 0 
          0 0 0 
          0 0 0 
          0 0 0 
          0 0 0 
          0 0 0 
          0 0 0 
          0 0 0 
          0 0 0 
          0 0 0 
          0 0 0 
          0 0 0 
          0 0 0 
          0 0 0 
          0 0 0 
          0 0 0 
          0 0 0 
          0 0 0 
          0 0 0 
          0 0 0 
          0 0 0 
          0 0 0 
          0 0 0 
          0 0 0 
          0 0 0 
          0 0 0 
          0 0 0 
          0 0 0 
          0 0 0 
          0 0 0 
          0 0 0 
          0 0 0 
          0 0 0 
          0 0 0 
          0 0 0 
          0 0 0 
          0 0 0 
          0 0 0 
          0 0 0 
          0 0 0 
          0 0 0 
          0 0 0 
          0 0 0 
          0 0 0 
          0 0 0 
          0 0 0 
          0 0 0 
          0 0 0 
          0 0 0 
          0 0 0 
          0 0 0 
          0 0 0 
          0 0 0 
          0 0 0 
          0 0 0 
          0 0 0 
          0 0 0 
          0 0 0 
          0 0 0 
          0 0 0 
          0 0 0 
          0 0 0 
          0 0 0 
          0 0 0 
          0 0 0 
          0 0 0 
          0 0 0 
          0 0 0 
          0 0 0 
          0 0 0 
          0 0 0 
          0 0 0 
          0 0 0 
          0 0 0 
          0 0 0 
          0 0 0 
          0 0 0 
          0 0 0 
          0 0 0 
          0 0 0 
          0 0 0 
          0 0 0 
          0 0 0 
          0 0 0 
          0 0 0 
          0 0 0 
          0 0 0 
          0 0 0 
          0 0 0 
          0 0 0 
          0 0 0 
          0 0 0 
          0 0 0 
          0 0 0 
          0 0 0 
          0 0 0 
          0 0 0 
          0 0 0 
          0 0 0 
          0 0 0 
          0 0 0 
          0 0 0 
          0 0 0 
          0 0 0 
          0 0 0 
          0 0 0 
          0 0 0 
          0 0 0 
          0 0 0 
          0 0 0 
          0 0 0 
          0 0 0 
          0 0 0 
          0 0 0 
          0 0 0 
          0 0 0 
          0 0 0 
          0 0 0 
          0 0 0 
          0 0 0 
          0 0 0 
          0 0 0 
          0 0 0 
          0 0 0 
          0 0 0 
          0 0 0 
          0 0 0 
          0 0 0 
          0 0 0 
          0 0 0 
          0 0 0 
          0 0 0 
          0 0 0 
          0 0 0 
          0 0 0 
          0 0 0 
          0 0 0 
          0 0 0 
          0 0 0 
          0 0 0 
          0 0 0 
          0 0 0 
          0 0 0 
          0 0 0 
          0 0 0 
          0 0 0 
          0 0 0 
          0 0 0 
          0 0 0 
          0 0 0 
          0 0 0 
          0 0 0 
          0 0 0 
          0 0 0 
          0 0 0 
          0 0 0 
          0 0 0 
          0 0 0 
          0 0 0 
          0 0 0 
          0 0 0 
          0 0 0 
          0 0 0 
          0 0 0 
          0 0 0 
          0 0 0 
          0 0 0 
          0 0 0 
          0 0 0 
          0 0 0 
          0 0 0 
          0 0 0 
          0 0 0 
          0 0 0 
          0 0 0 
          0 0 0 
          0 0 0 
          0 0 0 
          0 0 0 
          0 0 0 
          0 0 0 
          0 0 0 
          0 0 0 
          0 0 0 
          0 0 0 
          0 0 0 
          0 0 0 
          0 0 0 
          0 0 0 
          0 0 0 
          0 0 0 
          0 0 0 
          0 0 0 
          0 0 0 
          0 0 0 
          0 0 0 
          0 0 0 
          0 0 0 
          0 0 0 
          0 0 0 
          0 0 0 
          0 0 0 
          0 0 0 
          0 0 0 
          0 0 0 
          0 0 0 
          0 0 0 
          0 0 0 
          0 0 0 
          0 0 0 
          0 0 0 
          0 0 0 
          0 0 0 
          0 0 0 
          0 0 0 
          0 0 0 
          0 0 0 
          0 0 0 
          0 0 0 
          0 0 0 
          0 0 0 
          0 0 0 
          0 0 0 
          0 0 0 
          0 0 0 
          0 0 0 
          0 0 0 
          0 0 0 
          0 0 0 
          0 0 0 
          0 0 0 
          0 0 0 
          0 0 0 
          0 0 0 
          0 0 0 
          0 0 0 
          0 0 0 
          0 0 0 
          0 0 0 
          0 0 0 
          0 0 0 
          0 0 0 
          0 0 0 
          0 0 0 
          0 0 0 
          0 0 0 
          0 0 0 
          0 0 0 
          0 0 0 
          0 0 0 
          0 0 0 
          0 0 0 
          0 0 0 
          0 0 0 
          0 0 0 
          0 0 0 
          0 0 0 
          0 0 0 
          0 0 0 
          0 0 0 
          0 0 0 
          0 0 0 
          0 0 0 
          0 0 0 
          0 0 0 
          0 0 0 
          0 0 0 
          0 0 0 
          0 0 0 
          0 0 0 
          0 0 0 
          0 0 0 
          0 0 0 
          0 0 0 
          0 0 0 
          0 0 0 
          0 0 0 
          0 0 0 
          0 0 0 
          0 0 0 
          0 0 0 
          0 0 0 
          0 0 0 
          0 0 0 
          0 0 0 
          0 0 0 
          0 0 0 
          0 0 0 
          0 0 0 
          0 0 0 
          0 0 0 
          0 0 0 
          0 0 0 
          0 0 0 
          0 0 0 
          0 0 0 
          0 0 0 
          0 0 0 
          0 0 0 
          0 0 0 
          0 0 0 
          0 0 0 
          0 0 0 
          0 0 0 
          0 0 0 
          0 0 0 
          0 0 0 
          0 0 0 
          0 0 0 
          0 0 0 
          0 0 0 
          0 0 0 
          0 0 0 
          0 0 0 
          0 0 0 
          0 0 0 
          0 0 0 
          0 0 0 
          0 0 0 
          0 0 0 
          0 0 0 
          0 0 0 
          0 0 0 
          0 0 0 
          0 0 0 
          0 0 0 
          0 0 0 
          0 0 0 
          0 0 0 
          0 0 0 
          0 0 0 
          0 0 0 
          0 0 0 
          0 0 0 
          0 0 0 
          0 0 0 
          0 0 0 
          0 0 0 
          0 0 0 
          0 0 0 
          0 0 0 
          0 0 0 
          0 0 0 
          0 0 0 
          0 0 0 
          0 0 0 
          0 0 0 
          0 0 0 
          0 0 0 
          0 0 0 
          0 0 0 
          0 0 0 
          0 0 0 
          0 0 0 
          0 0 0 
          0 0 0 
          0 0 0 
          0 0 0 
          0 0 0 
          0 0 0 
          0 0 0 
          0 0 0 
          0 0 0 
          0 0 0 
          0 0 0 
          0 0 0 
          0 0 0 
          0 0 0 
          0 0 0 
          0 0 0 
          0 0 0 
          0 0 0 
          0 0 0 
          0 0 0 
          0 0 0 
          0 0 0 
          0 0 0 
          0 0 0 
          0 0 0 
          0 0 0 
          0 0 0 
          0 0 0 
          0 0 0 
          0 0 0 
          0 0 0 
          0 0 0 
          0 0 0 
          0 0 0 
          0 0 0 
          0 0 0 
          0 0 0 
          0 0 0 
          0 0 0 
          0 0 0 
          0 0 0 
          0 0 0 
          0 0 0 
          0 0 0 
          0 0 0 
          0 0 0 
          0 0 0 
          0 0 0 
          0 0 0 
          0 0 0 
          0 0 0 
          0 0 0 
          0 0 0 
          0 0 0 
          0 0 0 
          0 0 0 
          0 0 0 
          0 0 0 
          0 0 0 
          0 0 0 
          0 0 0 
          0 0 0 
          0 0 0 
          0 0 0 
          0 0 0 
          0 0 0 
          0 0 0 
          0 0 0 
          0 0 0 
          0 0 0 
          0 0 0 
          0 0 0 
          0 0 0 
          0 0 0 
          0 0 0 
          0 0 0 
          0 0 0 
          0 0 0 
          0 0 0 
          0 0 0 
          0 0 0 
          0 0 0 
          0 0 0 
          0 0 0 
          0 0 0 
          0 0 0 
          0 0 0 
          0 0 0 
          0 0 0 
          0 0 0 
          0 0 0 
          0 0 0 
          0 0 0 
          0 0 0 
          0 0 0 
          0 0 0 
          0 0 0 
          0 0 0 
          0 0 0 
          0 0 0 
          0 0 0 
          0 0 0 
          0 0 0 
          0 0 0 
          0 0 0 
          0 0 0 
          0 0 0 
          0 0 0 
          0 0 0 
          0 0 0 
          0 0 0 
          0 0 0 
          0 0 0 
          0 0 0 
          0 0 0 
          0 0 0 
          0 0 0 
          0 0 0 
          0 0 0 
          0 0 0 
          0 0 0 
          0 0 0 
          0 0 0 
          0 0 0 
          0 0 0 
          0 0 0 
          0 0 0 
          0 0 0 
          0 0 0 
          0 0 0 
          0 0 0 
          0 0 0 
          0 0 0 
          0 0 0 
          0 0 0 
          0 0 0 
          0 0 0 
          0 0 0 
          0 0 0 
          0 0 0 
          0 0 0 
          0 0 0 
          0 0 0 
          0 0 0 
          0 0 0 
          0 0 0 
          0 0 0 
          0 0 0 
          0 0 0 
          0 0 0 
          0 0 0 
          0 0 0 
          0 0 0 
          0 0 0 
          0 0 0 
          0 0 0 
          0 0 0 
          0 0 0 
          0 0 0 
          0 0 0 
          0 0 0 
          0 0 0 
          0 0 0 
          0 0 0 
          0 0 0 
          0 0 0 
          0 0 0 
          0 0 0 
          0 0 0 
          0 0 0 
          0 0 0 
          0 0 0 
          0 0 0 
          0 0 0 
          0 0 0 
          0 0 0 
          0 0 0 
          0 0 0 
          0 0 0 
          0 0 0 
          0 0 0 
          0 0 0 
          0 0 0 
          0 0 0 
          0 0 0 
          0 0 0 
          0 0 0 
          0 0 0 
          0 0 0 
          0 0 0 
          0 0 0 
          0 0 0 
          0 0 0 
          0 0 0 
          0 0 0 
          0 0 0 
          0 0 0 
          0 0 0 
          0 0 0 
          0 0 0 
          0 0 0 
          0 0 0 
          0 0 0 
          0 0 0 
          0 0 0 
          0 0 0 
          0 0 0 
          0 0 0 
          0 0 0 
          0 0 0 
          0 0 0 
          0 0 0 
          0 0 0 
          0 0 0 
          0 0 0 
          0 0 0 
          0 0 0 
          0 0 0 
          0 0 0 
          0 0 0 
          0 0 0 
          0 0 0 
          0 0 0 
          0 0 0 
          0 0 0 
          0 0 0 
          0 0 0 
          0 0 0 
          0 0 0 
          0 0 0 
          0 0 0 
          0 0 0 
          0 0 0 
          0 0 0 
          0 0 0 
          0 0 0 
          0 0 0 
          0 0 0 
          0 0 0 
          0 0 0 
          0 0 0 
          0 0 0 
          0 0 0 
          0 0 0 
          0 0 0 
          0 0 0 
          0 0 0 
          0 0 0 
          0 0 0 
          0 0 0 
          0 0 0 
          0 0 0 
          0 0 0 
          0 0 0 
          0 0 0 
          0 0 0 
          0 0 0 
          0 0 0 
          0 0 0 
          0 0 0 
          0 0 0 
          0 0 0 
          0 0 0 
          0 0 0 
          0 0 0 
          0 0 0 
          0 0 0 
          0 0 0 
          0 0 0 
          0 0 0 
          0 0 0 
          0 0 0 
          0 0 0 
          0 0 0 
          0 0 0 
          0 0 0 
          0 0 0 
          0 0 0 
          0 0 0 
          0 0 0 
          0 0 0 
          0 0 0 
          0 0 0 
          0 0 0 
          0 0 0 
          0 0 0 
          0 0 0 
          0 0 0 
          0 0 0 
          0 0 0 
          0 0 0 
          0 0 0 
          0 0 0 
          0 0 0 
          0 0 0 
          0 0 0 
          0 0 0 
          0 0 0 
          0 0 0 
          0 0 0 
          0 0 0 
          0 0 0 
          0 0 0 
          0 0 0 
          0 0 0 
          0 0 0 
          0 0 0 
          0 0 0 
          0 0 0 
          0 0 0 
          0 0 0 
          0 0 0 
          0 0 0 
          0 0 0 
          0 0 0 
          0 0 0 
          0 0 0 
          0 0 0 
          0 0 0 
          0 0 0 
          0 0 0 
          0 0 0 
          0 0 0 
          0 0 0 
          0 0 0 
          0 0 0 
          0 0 0 
          0 0 0 
          0 0 0 
          0 0 0 
          0 0 0 
          0 0 0 
          0 0 0 
          0 0 0 
          0 0 0 
          0 0 0 
          0 0 0 
          0 0 0 
          0 0 0 
          0 0 0 
          0 0 0 
          0 0 0 
          0 0 0 
          0 0 0 
          0 0 0 
          0 0 0 
          0 0 0 
          0 0 0 
          0 0 0 
          0 0 0 
          0 0 0 
          0 0 0 
          0 0 0 
          0 0 0 
          0 0 0 
          0 0 0 
          0 0 0 
          0 0 0 
          0 0 0 
          0 0 0 
          0 0 0 
          0 0 0 
          0 0 0 
          0 0 0 
          0 0 0 
          0 0 0 
          0 0 0 
          0 0 0 
          0 0 0 
          0 0 0 
          0 0 0 
          0 0 0 
          0 0 0 
          0 0 0 
          0 0 0 
          0 0 0 
          0 0 0 
          0 0 0 
          0 0 0 
          0 0 0 
          0 0 0 
          0 0 0 
          0 0 0 
          0 0 0 
          0 0 0 
          0 0 0 
          0 0 0 
          0 0 0 
          0 0 0 
          0 0 0 
          0 0 0 
          0 0 0 
          0 0 0 
          0 0 0 
          0 0 0 
          0 0 0 
          0 0 0 
          0 0 0 
          0 0 0 
          0 0 0 
          0 0 0 
          0 0 0 
          0 0 0 
          0 0 0 
          0 0 0 
          0 0 0 
          0 0 0 
          0 0 0 
          0 0 0 
          0 0 0 
          0 0 0 
          0 0 0 
          0 0 0 
          0 0 0 
          0 0 0 
          0 0 0 
          0 0 0 
          0 0 0 
          0 0 0 
          0 0 0 
          0 0 0 
          0 0 0 
          0 0 0 
          0 0 0 
          0 0 0 
          0 0 0 
          0 0 0 
          0 0 0 
          0 0 0 
          0 0 0 
          0 0 0 
          0 0 0 
          0 0 0 
          0 0 0 
          0 0 0 
          0 0 0 
          0 0 0 
          0 0 0 
          0 0 0 
          0 0 0 
          0 0 0 
          0 0 0 
          0 0 0 
          0 0 0 
          0 0 0 
          0 0 0 
          0 0 0 
          0 0 0 
          0 0 0 
          0 0 0 
          0 0 0 
          0 0 0 
          0 0 0 
          0 0 0 
          0 0 0 
          0 0 0 
          0 0 0 
          0 0 0 
          0 0 0 
          0 0 0 
          0 0 0 
          0 0 0 
          0 0 0 
          0 0 0 
          0 0 0 
          0 0 0 
          0 0 0 
          0 0 0 
          0 0 0 
          0 0 0 
          0 0 0 
          0 0 0 
          0 0 0 
          0 0 0 
          0 0 0 
          0 0 0 
          0 0 0 
          0 0 0 
          0 0 0 
          0 0 0 
          0 0 0 
          0 0 0 
          0 0 0 
          0 0 0 
          0 0 0 
          0 0 0 
          0 0 0 
          0 0 0 
          0 0 0 
          0 0 0 
          0 0 0 
          0 0 0 
          0 0 0 
          0 0 0 
          0 0 0 
          0 0 0 
          0 0 0 
          0 0 0 
          0 0 0 
          0 0 0 
          0 0 0 
          0 0 0 
          0 0 0 
          0 0 0 
          0 0 0 
          0 0 0 
          0 0 0 
          0 0 0 
          0 0 0 
          0 0 0 
          0 0 0 
          0 0 0 
          0 0 0 
          0 0 0 
          0 0 0 
        </DataArray>
        <DataArray type="Float64" Name="id" NumberOfComponents="1" Format="ascii">
          181 
          873 
          967 
          298 
          555 
          663 
          321 
          331 
          495 
          514 
          911 
          49 
          141 
          175 
          501 
          647 
          702 
          810 
          958 
          989 
          370 
          949 
          672 
          755 
          803 
          856 
          162 
          735 
          26 
          240 
          359 
          428 
          14 
          29 
          306 
          581 
          655 
          804 
          22 
          116 
          430 
          805 
          956 
          228 
          461 
          530 
          291 
          427 
          503 
          703 
          826 
          200 
          216 
          522 
          576 
          346 
          454 
          272 
          329 
          467 
          202 
          373 
          494 
          866 
          924 
          60 
          91 
          213 
          126 
          508 
          547 
          74 
          84 
          160 
          212 
          416 
          549 
          912 
          982 
          147 
          591 
          316 
          394 
          489 
          543 
          558 
          580 
          915 
          89 
          354 
          411 
          899 
          916 
          945 
          176 
          183 
          609 
          748 
          758 
          825 
          969 
          80 
          180 
          448 
          584 
          641 
          733 
          972 
          11 
          106 
          325 
          560 
          835 
          881 
          900 
          36 
          250 
          536 
          587 
          621 
          98 
          432 
          440 
          620 
          814 
          818 
          27 
          238 
          526 
          571 
          709 
          110 
          241 
          285 
          534 
          837 
          90 
          153 
          460 
          492 
          586 
          769 
          846 
          739 
          764 
          779 
          796 
          842 
          10 
          479 
          985 
          206 
          554 
          917 
          76 
          879 
          887 
          966 
          777 
          608 
          229 
          551 
          725 
          401 
          443 
          451 
          588 
          883 
          984 
          19 
          223 
          627 
          266 
          470 
          471 
          480 
          744 
          754 
          88 
          161 
          219 
          485 
          708 
          771 
          791 
          237 