<?xml version="1.0"?>
<VTKFile type="UnstructuredGrid" version="0.1" byte_order="LittleEndian">
  <UnstructuredGrid>
    <Piece NumberOfPoints="1000" NumberOfCells="1000">
      <Points>
        <DataArray name="Position" type="Float64" NumberOfComponents="3" Format="ascii">
          5.57559e-05 0.00287062 0.0 
          0.0109344 0.0404272 0.0 
          0.0299048 0.0542961 0.0 
          0.0539945 0.017253 0.0 
          0.00792399 0.0565897 0.0 
          0.0684028 0.0322008 0.0 
          0.0784954 0.0573786 0.0 
          0.0689625 0.00698971 0.0 
          0.114081 0.0405991 0.0 
          0.123866 0.00645972 0.0 
          0.123313 0.0529404 0.0 
          0.0434738 0.0754965 0.0 
          0.0471904 0.0935729 0.0 
          0.0573235 0.0660081 0.0 
          0.0969231 0.124086 0.0 
          0.0697263 0.0920486 0.0 
          0.108951 0.113669 0.0 
          0.0950938 0.105437 0.0 
          0.0827954 0.108021 0.0 
          0.0886096 0.0806374 0.0 
          0.124068 0.121406 0.0 
          0.170571 0.0432814 0.0 
          0.169777 0.00407717 0.0 
          0.140396 0.0595945 0.0 
          0.171197 0.0604967 0.0 
          0.149592 0.00100979 0.0 
          0.174205 0.00504462 0.0 
          0.197272 0.0430538 0.0 
          0.18964 0.0339421 0.0 
          0.202018 0.0179326 0.0 
          0.190037 0.0328662 0.0 
          0.213989 0.0474764 0.0 
          0.232022 0.00363904 0.0 
          0.208982 0.0499805 0.0 
          0.149181 0.121142 0.0 
          0.142056 0.117703 0.0 
          0.212248 0.112506 0.0 
          0.190416 0.0648882 0.0 
          0.200524 0.120281 0.0 
          0.220826 0.0971161 0.0 
          0.229947 0.0737116 0.0 
          0.233635 0.110705 0.0 
          0.202769 0.071772 0.0 
          0.243565 0.0633169 0.0 
          0.0544783 0.135893 0.0 
          0.0470086 0.13434 0.0 
          0.0703222 0.171348 0.0 
          0.0683828 0.154671 0.0 
          0.104388 0.16108 0.0 
          0.0943887 0.158445 0.0 
          0.101665 0.156213 0.0 
          0.110994 0.147842 0.0 
          0.109993 0.175803 0.0 
          0.113183 0.183456 0.0 
          0.0753111 0.130416 0.0 
          0.00173938 0.235322 0.0 
          0.0544295 0.222986 0.0 
          0.0564852 0.219716 0.0 
          0.102852 0.22961 0.0 
          0.0857281 0.213271 0.0 
          0.105037 0.203521 0.0 
          0.0669173 0.225887 0.0 
          0.105478 0.204361 0.0 
          0.129182 0.144833 0.0 
          0.158992 0.129695 0.0 
          0.185624 0.186163 0.0 
          0.222376 0.12587 0.0 
          0.241517 0.156688 0.0 
          0.157372 0.241651 0.0 
          0.177595 0.188438 0.0 
          0.184521 0.22681 0.0 
          0.213223 0.242418 0.0 
          0.235474 0.192017 0.0 
          0.252295 0.0251738 0.0 
          0.281801 0.0333105 0.0 
          0.259232 0.0227105 0.0 
          0.270865 0.00811628 0.0 
          0.284259 0.0585956 0.0 
          0.294453 0.0452217 0.0 
          0.262802 0.0550029 0.0 
          0.364637 0.0420699 0.0 
          0.361985 0.0421944 0.0 
          0.31796 0.0145446 0.0 
          0.355228 0.0110317 0.0 
          0.35264 0.0253749 0.0 
          0.273577 0.0730967 0.0 
          0.296692 0.0994339 0.0 
          0.296304 0.0850642 0.0 
          0.302544 0.0949787 0.0 
          0.3676 0.115134 0.0 
          0.351389 0.0734768 0.0 
          0.377965 0.00659964 0.0 
          0.432897 0.00623138 0.0 
          0.392073 0.0188542 0.0 
          0.407587 0.0302721 0.0 
          0.422017 0.0373957 0.0 
          0.409334 0.059 0.0 
          0.487674 0.0278962 0.0 
          0.465006 0.00465111 0.0 
          0.473494 0.0211828 0.0 
          0.432058 0.108525 0.0 
          0.467237 0.0914515 0.0 
          0.464473 0.115091 0.0 
          0.46416 0.0824097 0.0 
          0.482612 0.113667 0.0 
          0.493655 0.0818198 0.0 
          0.451301 0.110738 0.0 
          0.460948 0.11526 0.0 
          0.308249 0.169803 0.0 
          0.282621 0.182117 0.0 
          0.294394 0.182235 0.0 
          0.335579 0.167237 0.0 
          0.34346 0.163608 0.0 
          0.361007 0.164697 0.0 
          0.319542 0.133904 0.0 
          0.337351 0.167087 0.0 
          0.288382 0.194273 0.0 
          0.257999 0.223339 0.0 
          0.257217 0.22379 0.0 
          0.268621 0.22746 0.0 
          0.35977 0.206698 0.0 
          0.342376 0.207596 0.0 
          0.354398 0.233109 0.0 
          0.357486 0.231132 0.0 
          0.355048 0.23297 0.0 
          0.425539 0.164048 0.0 
          0.430587 0.171949 0.0 
          0.390176 0.128017 0.0 
          0.412577 0.1685 0.0 
          0.428513 0.175692 0.0 
          0.394004 0.183114 0.0 
          0.445901 0.176495 0.0 
          0.437807 0.17023 0.0 
          0.394671 0.230206 0.0 
          0.392075 0.228304 0.0 
          0.431466 0.225312 0.0 
          0.43347 0.23857 0.0 
          0.380585 0.241512 0.0 
          0.469026 0.194008 0.0 
          0.450864 0.24721 0.0 
          0.480938 0.244366 0.0 
          0.000467454 0.281909 0.0 
          0.0517386 0.284881 0.0 
          0.0357167 0.295706 0.0 
          0.0291799 0.253929 0.0 
          0.0212874 0.260933 0.0 
          0.0505067 0.254497 0.0 
          0.0620719 0.27147 0.0 
          0.111973 0.286529 0.0 
          0.0666652 0.308779 0.0 
          0.0628802 0.252459 0.0 
          0.122852 0.270462 0.0 
          0.00627412 0.366383 0.0 
          0.0334146 0.35088 0.0 
          0.0889611 0.364416 0.0 
          0.0948333 0.358007 0.0 
          0.108352 0.361917 0.0 
          0.0732763 0.345094 0.0 
          0.0892152 0.324513 0.0 
          0.161078 0.267562 0.0 
          0.180789 0.30892 0.0 
          0.237766 0.266719 0.0 
          0.215915 0.297361 0.0 
          0.195592 0.308957 0.0 
          0.204819 0.306464 0.0 
          0.126177 0.372665 0.0 
          0.167181 0.365888 0.0 
          0.16672 0.329054 0.0 
          0.194324 0.325294 0.0 
          0.231318 0.315667 0.0 
          0.249994 0.343782 0.0 
          0.0554494 0.431741 0.0 
          0.0869624 0.429827 0.0 
          0.113177 0.435263 0.0 
          0.109927 0.400251 0.0 
          0.0334337 0.47262 0.0 
          0.0442912 0.481107 0.0 
          0.0244148 0.454699 0.0 
          0.00831937 0.437958 0.0 
          0.0692589 0.461472 0.0 
          0.163196 0.399292 0.0 
          0.183924 0.42085 0.0 
          0.134129 0.397391 0.0 
          0.129209 0.381345 0.0 
          0.205203 0.384335 0.0 
          0.230559 0.391447 0.0 
          0.226985 0.402018 0.0 
          0.141456 0.483136 0.0 
          0.142285 0.455895 0.0 
          0.185071 0.449789 0.0 
          0.166479 0.459986 0.0 
          0.18034 0.462301 0.0 
          0.210722 0.499 0.0 
          0.227979 0.445689 0.0 
          0.311302 0.260598 0.0 
          0.316506 0.292455 0.0 
          0.32526 0.256911 0.0 
          0.355348 0.305885 0.0 
          0.272013 0.348241 0.0 
          0.261937 0.334516 0.0 
          0.287187 0.327564 0.0 
          0.269822 0.341151 0.0 
          0.297588 0.318943 0.0 
          0.253735 0.327655 0.0 
          0.344022 0.327365 0.0 
          0.368051 0.326389 0.0 
          0.354334 0.367804 0.0 
          0.337515 0.367491 0.0 
          0.410184 0.288681 0.0 
          0.420528 0.267968 0.0 
          0.415626 0.278748 0.0 
          0.463435 0.299283 0.0 
          0.463351 0.291328 0.0 
          0.454327 0.270069 0.0 
          0.439389 0.308098 0.0 
          0.447211 0.307006 0.0 
          0.480165 0.306236 0.0 
          0.379915 0.32382 0.0 
          0.409802 0.358977 0.0 
          0.431963 0.373672 0.0 
          0.42945 0.360945 0.0 
          0.495008 0.312843 0.0 
          0.449544 0.319817 0.0 
          0.485694 0.313268 0.0 
          0.471347 0.346849 0.0 
          0.46411 0.334 0.0 
          0.46923 0.354305 0.0 
          0.450378 0.373147 0.0 
          0.274505 0.409181 0.0 
          0.275336 0.407951 0.0 
          0.258406 0.391896 0.0 
          0.287101 0.429341 0.0 
          0.315165 0.383419 0.0 
          0.331388 0.409701 0.0 
          0.327091 0.398783 0.0 
          0.335978 0.426911 0.0 
          0.25758 0.447834 0.0 
          0.264839 0.492913 0.0 
          0.350236 0.458285 0.0 
          0.31817 0.453822 0.0 
          0.353183 0.443583 0.0 
          0.352205 0.476872 0.0 
          0.36976 0.477242 0.0 
          0.333209 0.482467 0.0 
          0.417331 0.393756 0.0 
          0.402519 0.42107 0.0 
          0.391647 0.430293 0.0 
          0.449498 0.410636 0.0 
          0.479342 0.418962 0.0 
          0.467607 0.432787 0.0 
          0.431696 0.473918 0.0 
          0.428571 0.443748 0.0 
          0.475623 0.488436 0.0 
          0.518637 0.0547488 0.0 
          0.516573 0.0548061 0.0 
          0.55917 0.000600762 0.0 
          0.523319 0.0541844 0.0 
          0.566878 0.0610048 0.0 
          0.593462 0.0396566 0.0 
          0.560324 0.114843 0.0 
          0.554972 0.07595 0.0 
          0.550199 0.0705116 0.0 
          0.530007 0.0939882 0.0 
          0.542107 0.116018 0.0 
          0.62253 0.0635581 0.0 
          0.61278 0.0692812 0.0 
          0.572933 0.112855 0.0 
          0.605236 0.101348 0.0 
          0.601965 0.0706755 0.0 
          0.596968 0.114254 0.0 
          0.673967 0.0292527 0.0 
          0.661362 0.0122319 0.0 
          0.681058 0.0393776 0.0 
          0.632177 0.0350451 0.0 
          0.692141 0.0422641 0.0 
          0.742919 0.0302002 0.0 
          0.690063 0.0151836 0.0 
          0.697454 0.056072 0.0 
          0.696869 0.0522851 0.0 
          0.628413 0.101117 0.0 
          0.650532 0.0757545 0.0 
          0.626932 0.0718661 0.0 
          0.710645 0.112311 0.0 
          0.733644 0.0984619 0.0 
          0.705814 0.0853692 0.0 
          0.723531 0.123036 0.0 
          0.690743 0.122505 0.0 
          0.518311 0.164574 0.0 
          0.541531 0.173487 0.0 
          0.520571 0.171669 0.0 
          0.617481 0.138947 0.0 
[...]
      <PointData Scalars="scalars">
        <DataArray type="Float64" Name="velocity" NumberOfComponents="3" Format="ascii">
          -6.96751e-07 2.90742e-05 0.0 
          -0.00013436 0.000406286 0.0 
          -0.000359245 0.000533831 0.0 
          -0.000642494 0.000161329 0.0 
          -9.69363e-05 0.000568444 0.0 
          -0.000798069 0.000285869 0.0 
          -0.000892077 0.000486481 0.0 
          -0.000807586 6.21018e-05 0.0 
          -0.00121462 0.000276226 0.0 
          -0.00129718 4.04553e-05 0.0 
          -0.00127673 0.00033173 0.0 
          -0.000509527 0.000720892 0.0 
          -0.000543516 0.000882076 0.0 
          -0.000667607 0.000607385 0.0 
          -0.00100445 0.000940711 0.0 
          -0.000784632 0.000806075 0.0 
          -0.00111294 0.000796266 0.0 
          -0.0010096 0.000811981 0.0 
          -0.000898069 0.000888972 0.0 
          -0.000973896 0.000647833 0.0 
          -0.00121123 0.000747441 0.0 
          -0.00152769 0.000135658 0.0 
          -0.00153858 1.30498e-05 0.0 
          -0.00138049 0.000310727 0.0 
          -0.00151674 0.000186898 0.0 
          -0.00145325 4.67843e-06 0.0 
          -0.00155306 1.447e-05 0.0 
          -0.00158721 4.72095e-05 0.0 
          -0.00158173 5.71784e-05 0.0 
          -0.00160343 1.29192e-05 0.0 
          -0.00158297 5.4357e-05 0.0 
          -0.00159116 -1.00519e-05 0.0 
          -0.0015916 -6.11339e-06 0.0 
          -0.00158951 9.23015e-06 0.0 
          -0.00135243 0.000558168 0.0 
          -0.00132266 0.000596696 0.0 
          -0.00151063 -2.03168e-06 0.0 
          -0.00155975 0.000106032 0.0 
          -0.00149353 0.000107284 0.0 
          -0.00153145 -6.87603e-05 0.0 
          -0.00155222 -0.00010777 0.0 
          -0.00149324 -0.000188187 0.0 
          -0.00156644 4.89919e-05 0.0 
          -0.00153602 -0.000162727 0.0 
          -0.000595463 0.00124086 0.0 
          -0.000518412 0.00125287 0.0 
          -0.000715112 0.00146072 0.0 
          -0.000716306 0.00133741 0.0 
          -0.0010109 0.00115041 0.0 
          -0.000937935 0.00120696 0.0 
          -0.000998105 0.00113819 0.0 
          -0.00108052 0.00101088 0.0 
          -0.00102578 0.00119971 0.0 
          -0.00103305 0.00121822 0.0 
          -0.000806961 0.00110466 0.0 
          -1.65395e-05 0.00221823 0.0 
          -0.000508289 0.00196003 0.0 
          -0.000530467 0.00192286 0.0 
          -0.000869209 0.00160897 0.0 
          -0.000781234 0.0016642 0.0 
          -0.000938429 0.00142333 0.0 
          -0.000611618 0.00190097 0.0 
          -0.000939715 0.00142435 0.0 
          -0.00120623 0.000843784 0.0 
          -0.00137976 0.00051187 0.0 
          -0.00132685 0.000381435 0.0 
          -0.00148055 -9.8954e-05 0.0 
          -0.0013835 -0.000347051 0.0 
          -0.00109891 0.000957208 0.0 
          -0.00130569 0.000495332 0.0 
          -0.0012065 0.000486471 0.0 
          -0.00116835 3.12512e-05 0.0 
          -0.00130361 -0.000315686 0.0 
          -0.0015377 -8.29898e-05 0.0 
          -0.00141375 -0.000182698 0.0 
          -0.0015154 -8.70902e-05 0.0 
          -0.00147275 -3.83254e-05 0.0 
          -0.00138446 -0.000329427 0.0 
          -0.00133865 -0.000286794 0.0 
          -0.00148314 -0.000223872 0.0 
          -0.000836499 -0.000403 0.0 
          -0.000858469 -0.000401693 0.0 
          -0.00120038 -0.00011416 0.0 
          -0.000921693 -0.000103726 0.0 
          -0.000939947 -0.000236037 0.0 
          -0.00142147 -0.000353648 0.0 
          -0.00127165 -0.000632977 0.0 
          -0.001292 -0.000543143 0.0 
          -0.00124293 -0.000642292 0.0 
          -0.000762009 -0.00108319 0.0 
          -0.000925902 -0.000673587 0.0 
          -0.000731047 -6.49501e-05 0.0 
          -0.000292392 -5.16647e-05 0.0 
          -0.000612871 -0.000184537 0.0 
          -0.000486359 -0.000285773 0.0 
          -0.00037282 -0.000331006 0.0 
          -0.00046604 -0.000550856 0.0 
          -1.69687e-05 -5.90594e-05 0.0 
          -9.28932e-05 -2.49103e-05 0.0 
          -5.77987e-05 -8.98516e-05 0.0 
          -0.000280376 -0.000882937 0.0 
          -7.94403e-05 -0.000456322 0.0 
          -8.88794e-05 -0.000607302 0.0 
          -9.34706e-05 -0.00044319 0.0 
          -2.71534e-05 -0.000324236 0.0 
          -6.37126e-06 -9.07856e-05 0.0 
          -0.000154965 -0.000739364 0.0 
          -0.000104669 -0.000654573 0.0 
          -0.00108074 -0.00115144 0.0 
          -0.0011826 -0.000925838 0.0 
          -0.001127 -0.00106651 0.0 
          -0.000919675 -0.00136479 0.0 
          -0.000874234 -0.00138802 0.0 
          -0.000751026 -0.00148114 0.0 
          -0.00108017 -0.0010177 0.0 
          -0.000908478 -0.00137561 0.0 
          -0.0011255 -0.00104911 0.0 
          -0.00115517 -0.000712676 0.0 
          -0.00115601 -0.000701266 0.0 
          -0.0011086 -0.000888682 0.0 
          -0.000690303 -0.00179133 0.0 
          -0.000797655 -0.00169051 0.0 
          -0.000671735 -0.00193775 0.0 
          -0.000657455 -0.00194383 0.0 
          -0.000668182 -0.00194094 0.0 
          -0.00029975 -0.00135442 0.0 
          -0.000262584 -0.00136648 0.0 
          -0.000574936 -0.00121394 0.0 
          -0.000382607 -0.0014795 0.0 
          -0.000273737 -0.00141261 0.0 
          -0.000493454 -0.00166963 0.0 
          -0.000167535 -0.00121872 0.0 
          -0.000217483 -0.00128043 0.0 
          -0.000431391 -0.00201492 0.0 
          -0.000449469 -0.00200775 0.0 
          -0.000225136 -0.0017081 0.0 
          -0.0002054 -0.00176117 0.0 
          -0.000497891 -0.00210138 0.0 
          -6.11867e-05 -0.000877502 0.0 
          -0.000116914 -0.00151633 0.0 
          -2.39085e-05 -0.000698167 0.0 
          -3.88457e-06 0.00257467 0.0 
          -0.000405801 0.00242374 0.0 
          -0.000274092 0.00258708 0.0 
          -0.000257697 0.00231476 0.0 
          -0.000185572 0.00239149 0.0 
          -0.000436231 0.00221888 0.0 
          -0.000503144 0.00225938 0.0 
          -0.000780168 0.00182186 0.0 
          -0.000470329 0.00245812 0.0 
          -0.000539051 0.00212164 0.0 
          -0.000878586 0.00158966 0.0 
          -3.58832e-05 0.00309719 0.0 
          -0.000202531 0.00293465 0.0 
          -0.000460154 0.00250589 0.0 
          -0.000501518 0.00240104 0.0 
          -0.000540945 0.00222505 0.0 
          -0.000434726 0.00259545 0.0 
          -0.000564606 0.00231083 0.0 
          -0.00102537 0.000989274 0.0 
          -0.000908288 0.000744208 0.0 
          -0.00105292 -0.000415026 0.0 
          -0.000960422 1.87382e-05 0.0 
          -0.000917616 0.000445202 0.0 
          -0.000928189 0.000253481 0.0 
          -0.000559479 0.00197329 0.0 
          -0.000660116 0.00116505 0.0 
          -0.0008103 0.00107614 0.0 
          -0.000849715 0.000499801 0.0 
          -0.00086862 -0.000291914 0.0 
          -0.000715733 -0.000703444 0.0 
          -0.000183595 0.00313268 0.0 
          -0.000274098 0.00277459 0.0 
          -0.000309184 0.00239266 0.0 
          -0.000421891 0.00234325 0.0 
          -6.71546e-05 0.00339641 0.0 
          -7.43446e-05 0.00334301 0.0 
          -6.49633e-05 0.00339792 0.0 
          -2.73885e-05 0.00339321 0.0 
          -0.000155042 0.00307419 0.0 
          -0.000513375 0.0013313 0.0 
          -0.000421826 0.000909277 0.0 
          -0.000484945 0.00190921 0.0 
          -0.000535417 0.00194914 0.0 
          -0.000585789 0.000350881 0.0 
          -0.000529125 -0.000238152 0.0 
          -0.000483143 -0.000144127 0.0 
          -0.000144332 0.00195298 0.0 
          -0.000258545 0.00189136 0.0 
          -0.000284586 0.000930636 0.0 
          -0.000242852 0.00138016 0.0 
          -0.000227186 0.00106283 0.0 
          -2.12826e-05 0.000363275 0.0 
          -0.000268725 -0.00012636 0.0 
          -0.000828166 -0.00164943 0.0 
          -0.00070527 -0.0018505 0.0 
          -0.000771455 -0.00181192 0.0 
          -0.000495928 -0.00233984 0.0 
          -0.000646905 -0.00117948 0.0 
          -0.0007295 -0.000956321 0.0 
          -0.000688811 -0.00145018 0.0 
          -0.000682297 -0.00112686 0.0 
          -0.000687457 -0.00162224 0.0 
          -0.000777153 -0.000777684 0.0 
          -0.000484307 -0.00232512 0.0 
          -0.000390501 -0.00251349 0.0 
          -0.0003305 -0.0025554 0.0 
          -0.000382116 -0.00237311 0.0 
          -0.000273261 -0.00229105 0.0 
          -0.000247505 -0.00208362 0.0 
          -0.000259786 -0.00219149 0.0 
          -5.6977e-05 -0.00140447 0.0 
          -5.93387e-05 -0.00138178 0.0 
          -9.47499e-05 -0.00154115 0.0 
          -0.000131157 -0.00201274 0.0 
          -0.000103465 -0.00185175 0.0 
          -2.00347e-05 -0.000852885 0.0 
          -0.000346609 -0.0025515 0.0 
          -0.000179222 -0.00259953 0.0 
          -0.000102204 -0.00236863 0.0 
          -0.00012094 -0.00237136 0.0 
          -2.64081e-06 -0.000235106 0.0 
          -8.93508e-05 -0.0018455 0.0 
          -1.1616e-05 -0.000643256 0.0 
          -2.90866e-05 -0.00126365 0.0 
          -4.59275e-05 -0.00148273 0.0 
          -3.10929e-05 -0.00135507 0.0 
          -5.985e-05 -0.00198193 0.0 
          -0.000373009 -0.00126811 0.0 
          -0.000377002 -0.00128638 0.0 
          -0.000482632 -0.000901501 0.0 
          -0.000259104 -0.0015455 0.0 
          -0.00038863 -0.00206874 0.0 
          -0.000253151 -0.00236668 0.0 
          -0.000301883 -0.00228794 0.0 
          -0.000183454 -0.00245012 0.0 
          -0.000218945 -0.000862027 0.0 
          8.40378e-06 -0.000999649 0.0 
          -5.99111e-05 -0.00264466 0.0 
          -0.000108182 -0.00217445 0.0 
          -0.000103806 -0.00267051 0.0 
          9.99686e-07 -0.00266446 0.0 
          5.54854e-06 -0.00281791 0.0 
          1.3776e-05 -0.00241644 0.0 
          -0.000112371 -0.0026261 0.0 
          -9.55838e-05 -0.00280791 0.0 
          -9.21401e-05 -0.00285987 0.0 
          -4.08718e-05 -0.00208062 0.0 
          -8.77187e-06 -0.0010383 0.0 
          -1.41191e-05 -0.00153073 0.0 
          -3.9444e-06 -0.00252459 0.0 
          -3.67015e-05 -0.0025576 0.0 
          -1.16074e-07 -0.00123278 0.0 
          -5.29111e-08 -3.25553e-09 0.0 
          -5.29604e-08 -3.22225e-09 0.0 
          -5.14824e-08 -4.35093e-11 0.0 
          -5.279e-08 -3.30373e-09 0.0 
          -4.9884e-08 -4.51162e-09 0.0 
          -4.81169e-08 -3.23612e-09 0.0 
          -4.80779e-08 -8.14877e-09 0.0 
          -5.03496e-08 -5.3413e-09 0.0 
          -5.0896e-08 -4.86709e-09 0.0 
          -5.10041e-08 -5.87364e-09 0.0 
          -4.92361e-08 -7.61816e-09 0.0 
          -4.50563e-08 -5.64968e-09 0.0 
          -4.5709e-08 -5.97942e-09 0.0 
          -4.71575e-08 -8.41293e-09 0.0 
          -4.50833e-08 -8.46839e-09 0.0 
          -4.65799e-08 -5.89838e-09 0.0 
          -4.51173e-08 -9.2557e-09 0.0 
          -4.09767e-08 -2.97001e-09 0.0 
          -4.23755e-08 -1.21051e-09 0.0 
          -4.01132e-08 -4.05247e-09 0.0 
          -4.48542e-08 -3.21341e-09 0.0 
          -3.89084e-08 -4.44678e-09 0.0 
          -3.34677e-08 -3.47926e-09 0.0 
          -3.94299e-08 -1.59757e-09 0.0 
          -3.80866e-08 -5.94851e-09 0.0 
          -3.82265e-08 -5.54375e-09 0.0 
          -4.3185e-08 -9.04273e-09 0.0 
          -4.2222e-08 -7.22992e-09 0.0 
          -4.44307e-08 -6.45674e-09 0.0 
          -3.49575e-08 -1.20233e-08 0.0 
          -3.30355e-08 -1.10169e-08 0.0 
          -3.6429e-08 -9.14176e-09 0.0 
          -3.31802e-08 -1.34172e-08 0.0 
          -3.65208e-08 -1.25794e-08 0.0 
          -4.66918e-08 -9.38798e-09 0.0 
          -4.50922e-08 -1.10515e-08 0.0 
          -4.60356e-08 -9.87294e-09 0.0 
          -4.20539e-08 -1.18696e-08 0.0 
          -3.97168e-08 -1.42725e-08 0.0 
          -4.59088e-08 -1.01156e-08 0.0 
          -4.53787e-08 -9.98977e-09 0.0 
          -4.00952e-08 -1.24295e-08 0.0 
          -4.20196e-08 -1.28941e-08 0.0 
          -4.06926e-08 -1.3452e-08 0.0 
          -4.33056e-08 -1.06549e-08 0.0 
          -3.86455e-08 -1.43787e-08 0.0 
          -4.32787e-08 -1.23863e-08 0.0 
          -4.14785e-08 -1.36438e-08 0.0 
          -3.85645e-08 -1.56478e-08 0.0 
          -3.80711e-08 -1.59957e-08 0.0 
          -4.13016e-08 -1.2252e-08 0.0 
          -3.78457e-08 -1.5675e-08 0.0 
          -3.36776e-08 -1.80586e-08 0.0 
          -3.09122e-08 -1.43257e-08 0.0 
          -3.27513e-08 -1.89279e-08 0.0 
          -3.5463e-08 -1.78062e-08 0.0 
          -3.37029e-08 -1.89462e-08 0.0 
          -2.61317e-08 -2.27898e-08 0.0 
          -3.07207e-08 -2.05158e-08 0.0 
          -2.84322e-08 -2.06587e-08 0.0 
          -2.76269e-08 -2.24868e-08 0.0 
          -2.95988e-08 -4.44602e-09 0.0 
          -2.85701e-08 -6.2131e-09 0.0 
          -3.17963e-08 -5.14844e-09 0.0 
          -2.62061e-08 -3.46743e-09 0.0 
          -3.04593e-08 -6.39397e-09 0.0 
          -2.46728e-08 -1.17689e-09 0.0 
          -1.9409e-08 -4.2263e-09 0.0 
          -1.83255e-08 -3.26843e-09 0.0 
          -2.11893e-08 -4.08146e-09 0.0 
          -3.16348e-08 -7.564e-09 0.0 
          -3.03032e-08 -9.24719e-09 0.0 
          -2.1248e-08 -1.1956e-08 0.0 
          -1.0737e-08 -6.98552e-09 0.0 
          -1.49015e-08 -1.44129e-09 0.0 
          -8.81577e-09 -1.0532e-09 0.0 
          -1.55839e-08 -6.63232e-09 0.0 
          -5.24925e-09 -1.52923e-09 0.0 
          -5.92635e-09 -1.8849e-09 0.0 
          -5.8644e-09 -6.87768e-09 0.0 
          -4.63829e-09 -4.78254e-09 0.0 
          -1.71864e-09 -4.53053e-09 0.0 
          -4.39132e-10 -1.82257e-09 0.0 
          -1.32874e-08 -1.41233e-08 0.0 
          -1.25638e-08 -1.16058e-08 0.0 
          -9.00338e-09 -1.40106e-08 0.0 
          -1.49917e-08 -1.14345e-08 0.0 
          -4.4738e-09 -1.34939e-08 0.0 
          -4.61227e-09 -1.56857e-08 0.0 
          -2.40711e-08 -2.1339e-08 0.0 
          -2.53851e-08 -1.67327e-08 0.0 
          -2.52837e-08 -1.91724e-08 0.0 
          -2.35052e-08 -1.53976e-08 0.0 
          -2.76222e-08 -1.50796e-08 0.0 
          -1.74175e-08 -2.27288e-08 0.0 
          -2.11884e-08 -2.22847e-08 0.0 
          -1.8526e-08 -2.75222e-08 0.0 
          -1.64263e-08 -2.74397e-08 0.0 
          -1.81423e-08 -2.73229e-08 0.0 
          -1.73154e-08 -2.62298e-08 0.0 
          -1.23307e-08 -2.18154e-08 0.0 
          -1.46468e-08 -1.81151e-08 0.0 
          -1.09331e-08 -2.30489e-08 0.0 
          -6.45263e-10 -2.08334e-08 0.0 
          -3.30421e-09 -2.20469e-08 0.0 
          -1.20325e-09 -1.76945e-08 0.0 
          -3.62484e-09 -2.15517e-08 0.0 
          -7.64666e-09 -2.67707e-08 0.0 
          -8.8415e-09 -2.67474e-08 0.0 
          -8.97678e-09 -2.43085e-08 0.0 
          -1.0413e-08 -2.99646e-08 0.0 
          -6.53257e-09 -2.74863e-08 0.0 
          -7.1241e-10 -2.62497e-08 0.0 
          -2.41767e-09 -2.59164e-08 0.0 
          -5.75651e-09 -2.53384e-08 0.0 
          -3.1395e-08 -1.74579e-08 0.0 
          -3.69368e-08 -1.39263e-08 0.0 
          -3.43511e-08 -1.33133e-08 0.0 
          -3.57417e-08 -1.50574e-08 0.0 
          -3.40854e-08 -1.63872e-08 0.0 
          -2.78602e-08 -2.26146e-08 0.0 
          -3.0791e-08 -1.95803e-08 0.0 
          -3.37883e-08 -1.83737e-08 0.0 
          -2.40743e-08 -1.86086e-08 0.0 
          -1.99833e-08 -2.55915e-08 0.0 
          -2.5583e-08 -2.13849e-08 0.0 
          -2.06394e-08 -2.18386e-08 0.0 
          -2.5796e-08 -2.16948e-08 0.0 
          -3.03664e-08 -2.15122e-08 0.0 
          -2.86405e-08 -2.32033e-08 0.0 
          -2.64481e-08 -2.48527e-08 0.0 
          -3.07849e-08 -2.13275e-08 0.0 
          -2.23407e-08 -2.76074e-08 0.0 
          -2.44168e-08 -2.61049e-08 0.0 
          -2.06103e-08 -2.66295e-08 0.0 
          -2.17159e-08 -2.52826e-08 0.0 
          -2.2095e-08 -2.70202e-08 0.0 
          -1.87355e-08 -3.03457e-08 0.0 
          -1.85495e-08 -3.06266e-08 0.0 
          -1.8079e-08 -3.09307e-08 0.0 
          -1.58687e-08 -3.23524e-08 0.0 
          -1.5154e-08 -3.24156e-08 0.0 
          -1.32965e-08 -3.35406e-08 0.0 
          -1.96079e-08 -1.62228e-08 0.0 
          -1.80552e-08 -2.00467e-08 0.0 
          -1.36018e-08 -1.7876e-08 0.0 
          -1.58553e-08 -1.63798e-08 0.0 
          -1.72014e-08 -2.04081e-08 0.0 
          -1.70307e-08 -1.79042e-08 0.0 
          -1.3641e-08 -2.73242e-08 0.0 
          -1.58404e-08 -2.4976e-08 0.0 
          -1.23736e-08 -2.38684e-08 0.0 
          -1.17164e-08 -2.55987e-08 0.0 
          -1.28738e-08 -2.46017e-08 0.0 
          -9.0926e-09 -1.74606e-08 0.0 
          -5.00572e-09 -1.74729e-08 0.0 
          -9.65021e-09 -2.21296e-08 0.0 
          -7.50229e-09 -2.24813e-08 0.0 
          -4.77161e-09 -2.04133e-08 0.0 
          -1.98585e-09 -2.08085e-08 0.0 
          -6.03575e-09 -2.47758e-08 0.0 
          -6.11511e-09 -2.38989e-08 0.0 
          -6.30717e-09 -2.63602e-08 0.0 
          -3.37195e-09 -2.54851e-08 0.0 
          -2.02085e-09 -2.84011e-08 0.0 
          -6.33928e-09 -2.48235e-08 0.0 
          -4.11464e-10 -2.51249e-08 0.0 
          -1.52734e-08 -2.7283e-08 0.0 
          -1.28153e-08 -2.85191e-08 0.0 
          -1.05829e-08 -3.37114e-08 0.0 
          -1.15348e-08 -3.41166e-08 0.0 
          -9.18246e-09 -3.40192e-08 0.0 
          -1.36883e-08 -3.25444e-08 0.0 
          -1.3432e-08 -3.16996e-08 0.0 
          -8.05571e-09 -3.37723e-08 0.0 
          -1.09399e-08 -3.42829e-08 0.0 
          -1.36951e-08 -3.155e-08 0.0 
          -4.03079e-09 -3.1361e-08 0.0 
          -8.51307e-09 -2.8251e-08 0.0 
          -1.81875e-09 -3.15523e-08 0.0 
          -7.71007e-09 -3.23679e-08 0.0 
          -6.48519e-09 -3.39072e-08 0.0 
          -4.42981e-09 -3.55038e-08 0.0 
          -5.61392e-10 -3.49895e-08 0.0 
          -1.42386e-09 -3.63918e-08 0.0 
          -1.60048e-08 -3.18701e-08 0.0 
          -1.53054e-08 -3.23357e-08 0.0 
          -2.14698e-08 -2.75699e-08 0.0 
          -1.76655e-08 -2.86564e-08 0.0 
          -2.04374e-08 -2.82898e-08 0.0 
          -1.83947e-08 -2.83427e-08 0.0 
          -1.69051e-08 -2.92908e-08 0.0 
          -1.38111e-08 -2.96928e-08 0.0 
          -1.13172e-08 -3.17981e-08 0.0 
          -1.48699e-08 -3.11907e-08 0.0 
          -1.17113e-08 -3.43712e-08 0.0 
          -1.4824e-08 -3.32077e-08 0.0 
          -1.46781e-08 -3.34521e-08 0.0 
          -1.47279e-08 -3.3147e-08 0.0 
          -1.23446e-08 -3.48503e-08 0.0 
          -1.46722e-08 -3.34112e-08 0.0 
          -1.55837e-08 -3.26885e-08 0.0 
          -1.13713e-08 -3.58631e-08 0.0 
          -1.18885e-08 -3.48859e-08 0.0 
          -9.39768e-09 -3.60316e-08 0.0 
          -1.03716e-08 -3.65733e-08 0.0 
          -8.23821e-09 -3.80833e-08 0.0 
          -8.8261e-09 -3.47212e-08 0.0 
          -5.82909e-09 -3.31016e-08 0.0 
          -8.30271e-09 -3.47576e-08 0.0 
          -1.3902e-09 -3.28245e-08 0.0 
          -2.64656e-09 -3.59345e-08 0.0 
          -3.85029e-09 -3.33828e-08 0.0 
          -3.26138e-09 -3.24379e-08 0.0 
          -2.24847e-09 -3.59697e-08 0.0 
          -9.74625e-10 -3.49567e-08 0.0 
          -2.59434e-09 -3.5042e-08 0.0 
          -5.39513e-09 -3.7482e-08 0.0 
          -8.39545e-09 -3.67213e-08 0.0 
          -5.91079e-09 -3.90373e-08 0.0 
          -4.72601e-09 -3.97267e-08 0.0 
          -5.61015e-09 -3.74791e-08 0.0 
          -7.44974e-09 -3.80193e-08 0.0 
          -1.80111e-09 -3.87458e-08 0.0 
          -6.94221e-10 -3.81176e-08 0.0 
          -1.77549e-09 -3.73842e-08 0.0 
          -6.77537e-10 -3.96163e-08 0.0 
          -6.38526e-09 -3.71074e-08 0.0 
          -9.31135e-09 -3.61079e-08 0.0 
          -1.05948e-08 -3.51824e-08 0.0 
          -8.3092e-09 -3.65027e-08 0.0 
          -6.05281e-09 -3.77293e-08 0.0 
          -6.12783e-09 -3.73008e-08 0.0 
          -8.44034e-09 -3.7948e-08 0.0 
          -3.28834e-09 -3.90851e-08 0.0 
          -4.37393e-09 -3.72989e-08 0.0 
          -3.92534e-09 -3.75238e-08 0.0 
          -2.59345e-09 -3.78987e-08 0.0 
          -3.3784e-09 -3.87845e-08 0.0 
          -2.31719e-09 -4.02859e-08 0.0 
          -2.38985e-09 -4.14151e-08 0.0 
          -2.30156e-09 -4.06973e-08 0.0 