<?xml version="1.0"?>
<VTKFile type="UnstructuredGrid" version="0.1" byte_order="LittleEndian">
  <UnstructuredGrid>
    <Piece NumberOfPoints="1000" NumberOfCells="1000">
      <Points>
        <DataArray name="Position" type="Float64" NumberOfComponents="3" Format="ascii">
          2.06218e-05 0.00766718 0.0 
          0.020553 0.0445886 0.0 
          0.0263403 0.017773 0.0 
          0.0490637 0.0147162 0.0 
          0.060748 0.00213564 0.0 
          0.0706597 0.00803254 0.0 
          0.0729378 0.00977124 0.0 
          0.0819112 0.0614282 0.0 
          0.0820831 0.0593948 0.0 
          0.0883752 0.0308184 0.0 
          0.106959 0.00538506 0.0 
          0.121856 0.0330503 0.0 
          0.00416398 0.106729 0.0 
          0.0456793 0.093996 0.0 
          0.0264761 0.0814372 0.0 
          0.0503685 0.11923 0.0 
          0.0737251 0.11684 0.0 
          0.0843239 0.115879 0.0 
          0.0722589 0.0843196 0.0 
          0.091934 0.121021 0.0 
          0.0938939 0.08255 0.0 
          0.0866396 0.0752063 0.0 
          0.0967739 0.0765888 0.0 
          0.108959 0.108554 0.0 
          0.117456 0.0867962 0.0 
          0.127168 0.0285725 0.0 
          0.136491 0.00948201 0.0 
          0.146782 0.0360382 0.0 
          0.150322 0.0620288 0.0 
          0.159447 0.0446388 0.0 
          0.184401 0.0120553 0.0 
          0.232652 0.0160053 0.0 
          0.232622 0.0466295 0.0 
          0.236572 0.00682056 0.0 
          0.24839 0.0248031 0.0 
          0.141803 0.0828842 0.0 
          0.131489 0.0672519 0.0 
          0.165767 0.095189 0.0 
          0.164011 0.0820533 0.0 
          0.171352 0.0872675 0.0 
          0.194654 0.106936 0.0 
          0.219283 0.117021 0.0 
          0.221633 0.115399 0.0 
          0.229601 0.108133 0.0 
          0.0231033 0.166732 0.0 
          0.0117004 0.14136 0.0 
          0.00308328 0.148373 0.0 
          0.0314385 0.1415 0.0 
          0.0585896 0.127629 0.0 
          0.105567 0.148273 0.0 
          0.102311 0.177482 0.0 
          0.110518 0.187336 0.0 
          0.115609 0.156935 0.0 
          0.0420247 0.244375 0.0 
          0.0200768 0.234167 0.0 
          0.0297151 0.224778 0.0 
          0.0177551 0.192157 0.0 
          0.0370716 0.192768 0.0 
          0.0654941 0.241375 0.0 
          0.0694903 0.242494 0.0 
          0.0757233 0.249821 0.0 
          0.0965655 0.199131 0.0 
          0.164588 0.184097 0.0 
          0.175306 0.170298 0.0 
          0.187101 0.145037 0.0 
          0.222708 0.186045 0.0 
          0.234777 0.136342 0.0 
          0.162808 0.24249 0.0 
          0.128267 0.206396 0.0 
          0.172019 0.187584 0.0 
          0.208331 0.206827 0.0 
          0.221409 0.219972 0.0 
          0.252918 0.0242603 0.0 
          0.276441 0.00347461 0.0 
          0.304501 0.00918025 0.0 
          0.337439 0.0139795 0.0 
          0.341832 0.0272085 0.0 
          0.368868 0.0171406 0.0 
          0.262307 0.0646624 0.0 
          0.256384 0.0960586 0.0 
          0.260222 0.120583 0.0 
          0.305497 0.0630203 0.0 
          0.300363 0.124588 0.0 
          0.318061 0.088939 0.0 
          0.354432 0.0783773 0.0 
          0.324744 0.112091 0.0 
          0.319574 0.112119 0.0 
          0.391958 0.00292496 0.0 
          0.391978 0.0513592 0.0 
          0.430735 0.0588434 0.0 
          0.485992 0.0229185 0.0 
          0.45414 0.00280271 0.0 
          0.467153 0.0142037 0.0 
          0.453066 0.0494945 0.0 
          0.458016 0.0569888 0.0 
          0.38097 0.0770264 0.0 
          0.391678 0.0820938 0.0 
          0.387688 0.0834006 0.0 
          0.40605 0.0838132 0.0 
          0.422127 0.0914354 0.0 
          0.396567 0.109783 0.0 
          0.401285 0.117793 0.0 
          0.453855 0.0696833 0.0 
          0.479794 0.0870453 0.0 
          0.493048 0.0738747 0.0 
          0.448084 0.0671396 0.0 
          0.256358 0.139982 0.0 
          0.260655 0.136123 0.0 
          0.257301 0.139314 0.0 
          0.272106 0.17945 0.0 
          0.295147 0.178568 0.0 
          0.313336 0.168163 0.0 
          0.361557 0.138794 0.0 
          0.370694 0.13373 0.0 
          0.370129 0.177811 0.0 
          0.261853 0.203915 0.0 
          0.28522 0.214486 0.0 
          0.264247 0.234413 0.0 
          0.367798 0.215467 0.0 
          0.352785 0.223219 0.0 
          0.378924 0.12879 0.0 
          0.416765 0.161796 0.0 
          0.433859 0.136239 0.0 
          0.43024 0.169224 0.0 
          0.403932 0.186569 0.0 
          0.434776 0.180479 0.0 
          0.461745 0.125941 0.0 
          0.440585 0.154641 0.0 
          0.4783 0.18661 0.0 
          0.455197 0.183394 0.0 
          0.409304 0.196711 0.0 
          0.387484 0.200702 0.0 
          0.41093 0.242325 0.0 
          0.455512 0.189193 0.0 
          0.457335 0.215894 0.0 
          0.477815 0.235072 0.0 
          0.438749 0.218401 0.0 
          0.467284 0.243368 0.0 
          0.464685 0.243738 0.0 
          0.439418 0.244625 0.0 
          0.0354096 0.305175 0.0 
          0.0448516 0.281837 0.0 
          0.0367252 0.255245 0.0 
          0.049248 0.254362 0.0 
          0.0573244 0.260504 0.0 
          0.100692 0.309156 0.0 
          0.0632475 0.30004 0.0 
          0.0345618 0.355964 0.0 
          0.0480535 0.348893 0.0 
          0.0513699 0.340171 0.0 
          0.0534718 0.347025 0.0 
          0.0587544 0.368242 0.0 
          0.0260214 0.324417 0.0 
          0.0223391 0.323535 0.0 
          0.0547465 0.318691 0.0 
          0.109994 0.361848 0.0 
          0.0968354 0.321623 0.0 
          0.131399 0.253726 0.0 
          0.15397 0.254136 0.0 
          0.153519 0.255678 0.0 
          0.204151 0.287392 0.0 
          0.210369 0.265039 0.0 
          0.24529 0.275365 0.0 
          0.162794 0.374847 0.0 
          0.130335 0.33863 0.0 
          0.18034 0.344755 0.0 
          0.151859 0.323939 0.0 
          0.183171 0.362389 0.0 
          0.18787 0.3351 0.0 
          0.195337 0.325704 0.0 
          0.199112 0.326421 0.0 
          0.221124 0.356223 0.0 
          0.22098 0.358415 0.0 
          0.236741 0.347342 0.0 
          0.0374514 0.385826 0.0 
          0.0617861 0.378301 0.0 
          0.0611541 0.416511 0.0 
          0.0615584 0.417436 0.0 
          0.0990401 0.414659 0.0 
          0.034689 0.478969 0.0 
          0.0355632 0.473019 0.0 
          0.0428161 0.476887 0.0 
          0.0520239 0.445982 0.0 
          0.0867624 0.489444 0.0 
          0.0651049 0.456541 0.0 
          0.108319 0.439584 0.0 
          0.140403 0.428896 0.0 
          0.144733 0.411834 0.0 
          0.148082 0.385912 0.0 
          0.188088 0.428318 0.0 
          0.223943 0.411024 0.0 
          0.244717 0.422002 0.0 
          0.204611 0.377638 0.0 
          0.130633 0.491211 0.0 
          0.171546 0.469682 0.0 
          0.132121 0.452101 0.0 
          0.14507 0.444716 0.0 
          0.206432 0.465046 0.0 
          0.189875 0.44137 0.0 
          0.261691 0.266165 0.0 
          0.269408 0.266205 0.0 
          0.279395 0.269658 0.0 
          0.303789 0.258678 0.0 
          0.304454 0.270561 0.0 
          0.312012 0.279796 0.0 
          0.270175 0.310238 0.0 
          0.29351 0.305506 0.0 
          0.333164 0.264775 0.0 
          0.348795 0.307909 0.0 
          0.357228 0.326563 0.0 
          0.320403 0.350131 0.0 
          0.331776 0.350559 0.0 
          0.338098 0.353106 0.0 
          0.374779 0.337951 0.0 
          0.418556 0.268623 0.0 
          0.494752 0.292104 0.0 
          0.484412 0.258434 0.0 
          0.464347 0.304307 0.0 
          0.376269 0.316798 0.0 
          0.430273 0.353389 0.0 
          0.379408 0.347427 0.0 
          0.43725 0.332269 0.0 
          0.385116 0.353283 0.0 
          0.402928 0.37224 0.0 
          0.392645 0.367507 0.0 
          0.477934 0.330161 0.0 
          0.450299 0.360038 0.0 
          0.267251 0.396011 0.0 
          0.304335 0.401274 0.0 
          0.293457 0.409361 0.0 
          0.325576 0.394263 0.0 
          0.35703 0.410772 0.0 
          0.334576 0.425662 0.0 
          0.363177 0.427394 0.0 
          0.368316 0.436408 0.0 
          0.269767 0.457051 0.0 
          0.293637 0.445341 0.0 
          0.258314 0.481139 0.0 
          0.295674 0.457474 0.0 
          0.251469 0.489656 0.0 
          0.283499 0.499013 0.0 
          0.325775 0.497552 0.0 
          0.372462 0.498866 0.0 
          0.389345 0.392736 0.0 
          0.408625 0.414076 0.0 
          0.474663 0.38135 0.0 
          0.45667 0.383661 0.0 
          0.44475 0.387881 0.0 
          0.456978 0.402587 0.0 
          0.449745 0.415941 0.0 
          0.432823 0.437657 0.0 
          0.396684 0.442319 0.0 
          0.377961 0.43812 0.0 
          0.387037 0.452826 0.0 
          0.384914 0.46572 0.0 
          0.399185 0.479318 0.0 
          0.464081 0.45606 0.0 
          0.479198 0.487903 0.0 
          0.449757 0.477116 0.0 
          0.518632 0.0547485 0.0 
          0.516568 0.0548058 0.0 
          0.559165 0.000600758 0.0 
          0.523314 0.0541841 0.0 
          0.566874 0.0610044 0.0 
          0.593458 0.0396563 0.0 
          0.560319 0.114842 0.0 
          0.554968 0.0759495 0.0 
          0.550195 0.0705112 0.0 
          0.530003 0.0939877 0.0 
          0.542102 0.116017 0.0 
          0.622526 0.0635576 0.0 
          0.612776 0.0692807 0.0 
          0.572929 0.112854 0.0 
          0.605232 0.101348 0.0 
          0.601961 0.070675 0.0 
          0.596964 0.114253 0.0 
          0.673964 0.0292525 0.0 
          0.661359 0.0122318 0.0 
          0.681054 0.0393773 0.0 
          0.632173 0.0350448 0.0 
          0.692138 0.0422637 0.0 
          0.742916 0.0301999 0.0 
          0.690059 0.0151834 0.0 
          0.697451 0.0560715 0.0 
          0.696866 0.0522847 0.0 
          0.628409 0.101116 0.0 
          0.650528 0.0757539 0.0 
          0.626928 0.0718655 0.0 
          0.710642 0.11231 0.0 
          0.733641 0.0984609 0.0 
          0.705811 0.0853684 0.0 
[...]
      <PointData Scalars="scalars">
        <DataArray type="Float64" Name="velocity" NumberOfComponents="3" Format="ascii">
          -2.57647e-07 7.76095e-05 0.0 
          -0.000250032 0.000444356 0.0 
          -0.000321216 0.000176441 0.0 
          -0.000586625 0.000139595 0.0 
          -0.000719116 1.95738e-05 0.0 
          -0.000825334 7.08714e-05 0.0 
          -0.000848843 8.53795e-05 0.0 
          -0.000923265 0.000512193 0.0 
          -0.000925959 0.000494927 0.0 
          -0.000996972 0.00024937 0.0 
          -0.00116589 3.88651e-05 0.0 
          -0.00127648 0.000210293 0.0 
          -4.92186e-05 0.00106297 0.0 
          -0.000526638 0.000889348 0.0 
          -0.000313703 0.000801619 0.0 
          -0.000563895 0.001107 0.0 
          -0.000804755 0.00100018 0.0 
          -0.000904519 0.000944497 0.0 
          -0.000815154 0.000731985 0.0 
          -0.000966049 0.000945695 0.0 
          -0.0010197 0.000643429 0.0 
          -0.000959634 0.000611167 0.0 
          -0.00104941 0.000587286 0.0 
          -0.00111905 0.000761279 0.0 
          -0.00120689 0.000571051 0.0 
          -0.00131542 0.000172861 0.0 
          -0.00138001 5.20144e-05 0.0 
          -0.00143004 0.000173155 0.0 
          -0.00143066 0.00028299 0.0 
          -0.00148482 0.000175747 0.0 
          -0.00157907 2.51679e-05 0.0 
          -0.00158859 -2.76239e-05 0.0 
          -0.00157355 -7.94064e-05 0.0 
          -0.00158296 -1.39828e-05 0.0 
          -0.00154949 -7.41669e-05 0.0 
          -0.00136659 0.000423775 0.0 
          -0.00132095 0.000388003 0.0 
          -0.0014592 0.000331427 0.0 
          -0.00146935 0.000296205 0.0 
          -0.00148839 0.000268588 0.0 
          -0.00151087 0.000142071 0.0 
          -0.00149963 -6.54048e-05 0.0 
          -0.00150071 -8.59782e-05 0.0 
          -0.00150403 -0.000149706 0.0 
          -0.000248382 0.00160575 0.0 
          -0.000131951 0.00138899 0.0 
          -3.46919e-05 0.00145911 0.0 
          -0.000348339 0.00135995 0.0 
          -0.000644572 0.00115319 0.0 
          -0.00103982 0.00105483 0.0 
          -0.000968039 0.00127765 0.0 
          -0.00100761 0.00126786 0.0 
          -0.00109813 0.00103146 0.0 
          -0.000376404 0.00218926 0.0 
          -0.000188448 0.00218643 0.0 
          -0.000282905 0.00208487 0.0 
          -0.000183308 0.00183971 0.0 
          -0.00037567 0.00179526 0.0 
          -0.00057675 0.0020236 0.0 
          -0.000606564 0.00200131 0.0 
          -0.000641252 0.00200099 0.0 
          -0.000887319 0.00147337 0.0 
          -0.00128247 0.000651276 0.0 
          -0.0013463 0.000475275 0.0 
          -0.00142817 0.000278385 0.0 
          -0.00133806 -0.000128764 0.0 
          -0.00144246 -0.000237005 0.0 
          -0.00111179 0.000876392 0.0 
          -0.00107425 0.00118955 0.0 
          -0.00129465 0.000567251 0.0 
          -0.00128488 8.60478e-05 0.0 
          -0.00123769 -0.000113508 0.0 
          -0.0015361 -8.11747e-05 0.0 
          -0.00144793 -1.78388e-05 0.0 
          -0.00129054 -6.47905e-05 0.0 
          -0.00106037 -0.000122772 0.0 
          -0.00102403 -0.000243044 0.0 
          -0.00080719 -0.000166416 0.0 
          -0.0014762 -0.000259974 0.0 
          -0.00145861 -0.000337438 0.0 
          -0.00140558 -0.000450861 0.0 
          -0.00125821 -0.000443538 0.0 
          -0.00121251 -0.000811555 0.0 
          -0.00115143 -0.000684996 0.0 
          -0.000898469 -0.000724365 0.0 
          -0.00107867 -0.000892115 0.0 
          -0.00111274 -0.000862841 0.0 
          -0.000614957 -2.87162e-05 0.0 
          -0.000606133 -0.000499753 0.0 
          -0.000303173 -0.000491141 0.0 
          -2.0652e-05 -5.47459e-05 0.0 
          -0.000148842 -1.84203e-05 0.0 
          -8.32636e-05 -7.21698e-05 0.0 
          -0.00015308 -0.000327934 0.0 
          -0.00012532 -0.00034801 0.0 
          -0.00068364 -0.0007482 0.0 
          -0.000595059 -0.000792852 0.0 
          -0.00062599 -0.000807698 0.0 
          -0.000482237 -0.000785593 0.0 
          -0.000358195 -0.000798267 0.0 
          -0.000540374 -0.00104143 0.0 
          -0.00049949 -0.00110293 0.0 
          -0.000146693 -0.000454575 0.0 
          -3.55829e-05 -0.000287178 0.0 
          -7.25216e-06 -8.97429e-05 0.0 
          -0.000180948 -0.000474756 0.0 
          -0.00138049 -0.000475244 0.0 
          -0.00137424 -0.000507227 0.0 
          -0.00137886 -0.000483073 0.0 
          -0.00123291 -0.000785971 0.0 
          -0.00113202 -0.0010571 0.0 
          -0.00105476 -0.00119093 0.0 
          -0.000782188 -0.00127172 0.0 
          -0.000718186 -0.00125343 0.0 
          -0.000666416 -0.0016165 0.0 
          -0.00120229 -0.000724363 0.0 
          -0.00108414 -0.00108969 0.0 
          -0.00110065 -0.000837342 0.0 
          -0.000622574 -0.00188869 0.0 
          -0.000702024 -0.00186406 0.0 
          -0.000659735 -0.00122218 0.0 
          -0.000359455 -0.00140166 0.0 
          -0.000257663 -0.00107977 0.0 
          -0.000266282 -0.0013505 0.0 
          -0.000423966 -0.00166417 0.0 
          -0.000231689 -0.00138242 0.0 
          -9.95785e-05 -0.000700955 0.0 
          -0.000206503 -0.00114511 0.0 
          -3.43587e-05 -0.000625487 0.0 
          -0.000118437 -0.00111091 0.0 
          -0.000379745 -0.00171303 0.0 
          -0.000515502 -0.00181466 0.0 
          -0.000323837 -0.00201583 0.0 
          -0.000115494 -0.00113586 0.0 
          -0.000100476 -0.00123265 0.0 
          -3.14728e-05 -0.00077483 0.0 
          -0.000188624 -0.00157212 0.0 
          -5.8614e-05 -0.00110644 0.0 
          -6.67044e-05 -0.00117736 0.0 
          -0.000170673 -0.00171011 0.0 
          -0.000262394 0.0026509 0.0 
          -0.000357958 0.0024456 0.0 
          -0.000320832 0.00229533 0.0 
          -0.000426061 0.0022253 0.0 
          -0.000483164 0.00221819 0.0 
          -0.000662148 0.00208826 0.0 
          -0.000463766 0.00243469 0.0 
          -0.000203759 0.00295625 0.0 
          -0.000289595 0.00283684 0.0 
          -0.000322025 0.00276553 0.0 
          -0.000323284 0.00278682 0.0 
          -0.000314596 0.00285028 0.0 
          -0.00017996 0.00281224 0.0 
          -0.000155621 0.00281926 0.0 
          -0.000376556 0.00261629 0.0 
          -0.000546859 0.00219971 0.0 
          -0.000609877 0.00220175 0.0 
          -0.000965797 0.00138785 0.0 
          -0.00104955 0.00105613 0.0 
          -0.00104326 0.00106901 0.0 
          -0.00100445 0.00024208 0.0 
          -0.00108827 9.96102e-05 0.0 
          -0.00100571 -0.000566387 0.0 
          -0.000617743 0.0012794 0.0 
          -0.000691259 0.00177533 0.0 
          -0.000761027 0.000836111 0.0 
          -0.000802088 0.00134233 0.0 
          -0.000686922 0.000812703 0.0 
          -0.000806229 0.000654593 0.0 
          -0.000848192 0.000479215 0.0 
          -0.000845487 0.000400759 0.0 
          -0.000703347 -4.62596e-05 0.0 
          -0.000693565 -4.11214e-05 0.0 
          -0.000723532 -0.000404373 0.0 
          -0.000184506 0.00308762 0.0 
          -0.000309995 0.00286925 0.0 
          -0.000231459 0.00302922 0.0 
          -0.000230963 0.0030285 0.0 
          -0.00034826 0.00255815 0.0 
          -6.18854e-05 0.00340121 0.0 
          -7.0694e-05 0.00338521 0.0 
          -7.83235e-05 0.00334613 0.0 
          -0.000148232 0.00320416 0.0 
          -0.000104287 0.00290749 0.0 
          -0.000158077 0.00310765 0.0 
          -0.000286514 0.00248457 0.0 
          -0.000368738 0.00187133 0.0 
          -0.000442976 0.00174333 0.0 
          -0.000553125 0.00160735 0.0 
          -0.000385664 0.000822991 0.0 
          -0.00044329 -6.24436e-05 0.0 
          -0.000363168 -0.000561148 0.0 
          -0.000617223 0.000355309 0.0 
          -0.000112247 0.00217977 0.0 
          -0.000196494 0.00127963 0.0 
          -0.000268307 0.00208555 0.0 
          -0.000306794 0.00181231 0.0 
          -0.000194817 0.000429144 0.0 
          -0.000322654 0.000801291 0.0 
          -0.000999026 -0.000860495 0.0 
          -0.000975784 -0.000997208 0.0 
          -0.000930398 -0.00117775 0.0 
          -0.000868897 -0.00153194 0.0 
          -0.00082835 -0.00158756 0.0 
          -0.000765349 -0.00173708 0.0 
          -0.000807627 -0.00109365 0.0 
          -0.000751421 -0.00151609 0.0 
          -0.00071051 -0.00193868 0.0 
          -0.000519494 -0.00229388 0.0 
          -0.000434252 -0.00244168 0.0 
          -0.000495285 -0.00208881 0.0 
          -0.000456131 -0.00225446 0.0 
          -0.000426849 -0.00234197 0.0 
          -0.000336637 -0.00259329 0.0 
          -0.000256491 -0.00210756 0.0 
          -3.1002e-06 -0.000235679 0.0 
          -1.66314e-05 -0.000607456 0.0 
          -5.32931e-05 -0.00139253 0.0 
          -0.00037687 -0.00251035 0.0 
          -0.000125865 -0.0023341 0.0 
          -0.00029838 -0.0026445 0.0 
          -0.000121632 -0.00214465 0.0 
          -0.000266263 -0.00267478 0.0 
          -0.000177879 -0.00269145 0.0 
          -0.000214708 -0.00271743 0.0 
          -2.10299e-05 -0.000982925 0.0 
          -6.68599e-05 -0.00195041 0.0 
          -0.000446896 -0.00110387 0.0 
          -0.000345143 -0.00188708 0.0 
          -0.000334755 -0.00167421 0.0 
          -0.000321873 -0.00225793 0.0 
          -0.00019796 -0.00267199 0.0 
          -0.00019022 -0.00242933 0.0 
          -0.0001389 -0.0027468 0.0 
          -0.000106739 -0.00279397 0.0 
          -0.000157776 -0.00114766 0.0 
          -0.000177642 -0.00168438 0.0 
          -5.61194e-05 -0.000852551 0.0 
          -0.000121476 -0.00172437 0.0 
          -2.21251e-05 -0.000672395 0.0 
          5.40821e-05 -0.00142798 0.0 
          6.83815e-05 -0.0022859 0.0 
          6.3214e-05 -0.00282466 0.0 
          -0.000173403 -0.00279233 0.0 
          -9.83463e-05 -0.00275363 0.0 
          -1.82779e-05 -0.0011949 0.0 
          -4.32156e-05 -0.00182935 0.0 
          -6.24291e-05 -0.0021544 0.0 
          -3.48291e-05 -0.00185466 0.0 
          -3.75492e-05 -0.00208236 0.0 
          -3.95674e-05 -0.00247965 0.0 
          -6.30029e-05 -0.00286217 0.0 
          -9.065e-05 -0.00285001 0.0 
          -4.83713e-05 -0.00288327 0.0 
          -2.03712e-05 -0.00288612 0.0 
          8.63107e-06 -0.00286978 0.0 
          -9.25475e-06 -0.00167788 0.0 
          -3.30682e-07 -0.00107509 0.0 
          -2.38495e-06 -0.00213557 0.0 
          -5.29112e-08 -3.25543e-09 0.0 
          -5.29605e-08 -3.22215e-09 0.0 
          -5.14827e-08 -4.35083e-11 0.0 
          -5.27902e-08 -3.30363e-09 0.0 
          -4.98843e-08 -4.51151e-09 0.0 
          -4.81172e-08 -3.23605e-09 0.0 
          -4.80783e-08 -8.14859e-09 0.0 
          -5.035e-08 -5.34117e-09 0.0 
          -5.08963e-08 -4.86697e-09 0.0 
          -5.10043e-08 -5.87348e-09 0.0 
          -4.92364e-08 -7.61797e-09 0.0 
          -4.50567e-08 -5.64957e-09 0.0 
          -4.57094e-08 -5.9793e-09 0.0 
          -4.71579e-08 -8.41275e-09 0.0 
          -4.50837e-08 -8.46823e-09 0.0 
          -4.65803e-08 -5.89826e-09 0.0 
          -4.51176e-08 -9.25551e-09 0.0 
          -4.09771e-08 -2.96996e-09 0.0 
          -4.23759e-08 -1.21049e-09 0.0 
          -4.01136e-08 -4.05241e-09 0.0 
          -4.48545e-08 -3.21335e-09 0.0 
          -3.89088e-08 -4.44671e-09 0.0 
          -3.3468e-08 -3.47921e-09 0.0 
          -3.94302e-08 -1.59755e-09 0.0 
          -3.8087e-08 -5.94841e-09 0.0 
          -3.82269e-08 -5.54366e-09 0.0 
          -4.31854e-08 -9.04257e-09 0.0 
          -4.22224e-08 -7.22979e-09 0.0 
          -4.44311e-08 -6.45662e-09 0.0 
          -3.49579e-08 -1.20232e-08 0.0 
          -3.30358e-08 -1.10167e-08 0.0 
          -3.64294e-08 -9.14162e-09 0.0 
          -3.31805e-08 -1.3417e-08 0.0 
          -3.65212e-08 -1.25792e-08 0.0 
          -4.6692e-08 -9.38773e-09 0.0 
          -4.50924e-08 -1.10512e-08 0.0 
          -4.60358e-08 -9.87268e-09 0.0 
          -4.20542e-08 -1.18694e-08 0.0 
          -3.97172e-08 -1.42723e-08 0.0 
          -4.59091e-08 -1.01154e-08 0.0 
          -4.53791e-08 -9.98956e-09 0.0 
          -4.00954e-08 -1.24292e-08 0.0 
          -4.20199e-08 -1.28938e-08 0.0 
          -4.06929e-08 -1.34518e-08 0.0 
          -4.33058e-08 -1.06546e-08 0.0 
          -3.86458e-08 -1.43784e-08 0.0 
          -4.3279e-08 -1.23861e-08 0.0 
          -4.14788e-08 -1.36436e-08 0.0 
          -3.85649e-08 -1.56476e-08 0.0 
          -3.80715e-08 -1.59955e-08 0.0 
          -4.1302e-08 -1.22518e-08 0.0 
          -3.7846e-08 -1.56748e-08 0.0 
          -3.36779e-08 -1.80584e-08 0.0 
          -3.09125e-08 -1.43255e-08 0.0 
          -3.27516e-08 -1.89277e-08 0.0 
          -3.54634e-08 -1.7806e-08 0.0 
          -3.37033e-08 -1.89459e-08 0.0 
          -2.6132e-08 -2.27896e-08 0.0 
          -3.0721e-08 -2.05156e-08 0.0 
          -2.84326e-08 -2.06585e-08 0.0 
          -2.76273e-08 -2.24865e-08 0.0 
          -2.95991e-08 -4.44595e-09 0.0 
          -2.85704e-08 -6.21301e-09 0.0 
          -3.17967e-08 -5.14837e-09 0.0 
          -2.62064e-08 -3.46738e-09 0.0 
          -3.04596e-08 -6.39388e-09 0.0 
          -2.4673e-08 -1.17688e-09 0.0 
          -1.94092e-08 -4.22625e-09 0.0 
          -1.83257e-08 -3.26839e-09 0.0 
          -2.11895e-08 -4.08141e-09 0.0 
          -3.16351e-08 -7.5639e-09 0.0 
          -3.03035e-08 -9.24706e-09 0.0 
          -2.12482e-08 -1.19559e-08 0.0 
          -1.07372e-08 -6.98544e-09 0.0 
          -1.49017e-08 -1.44127e-09 0.0 
          -8.81588e-09 -1.05319e-09 0.0 
          -1.55841e-08 -6.63224e-09 0.0 
          -5.24931e-09 -1.52921e-09 0.0 
          -5.92642e-09 -1.88488e-09 0.0 
          -5.86447e-09 -6.8776e-09 0.0 
          -4.63835e-09 -4.78248e-09 0.0 
          -1.71866e-09 -4.53048e-09 0.0 
          -4.39137e-10 -1.82255e-09 0.0 
          -1.32875e-08 -1.41232e-08 0.0 
          -1.2564e-08 -1.16056e-08 0.0 
          -9.0035e-09 -1.40104e-08 0.0 
          -1.49919e-08 -1.14344e-08 0.0 
          -4.47386e-09 -1.34938e-08 0.0 
          -4.61233e-09 -1.56855e-08 0.0 
          -2.40714e-08 -2.13387e-08 0.0 
          -2.53854e-08 -1.67325e-08 0.0 
          -2.5284e-08 -1.91722e-08 0.0 
          -2.35055e-08 -1.53974e-08 0.0 
          -2.76225e-08 -1.50794e-08 0.0 
          -1.74177e-08 -2.27286e-08 0.0 
          -2.11887e-08 -2.22844e-08 0.0 
          -1.85263e-08 -2.75219e-08 0.0 
          -1.64265e-08 -2.74395e-08 0.0 
          -1.81426e-08 -2.73226e-08 0.0 
          -1.73156e-08 -2.62295e-08 0.0 
          -1.23308e-08 -2.18152e-08 0.0 
          -1.4647e-08 -1.81149e-08 0.0 
          -1.09333e-08 -2.30487e-08 0.0 
          -6.45272e-10 -2.08332e-08 0.0 
          -3.30425e-09 -2.20467e-08 0.0 
          -1.20327e-09 -1.76944e-08 0.0 
          -3.62489e-09 -2.15515e-08 0.0 
          -7.64677e-09 -2.67704e-08 0.0 
          -8.84164e-09 -2.67471e-08 0.0 
          -8.97691e-09 -2.43082e-08 0.0 
          -1.04132e-08 -2.99643e-08 0.0 
          -6.53267e-09 -2.7486e-08 0.0 
          -7.1242e-10 -2.62495e-08 0.0 
          -2.41771e-09 -2.59161e-08 0.0 
          -5.75659e-09 -2.53382e-08 0.0 
          -3.13953e-08 -1.74576e-08 0.0 
          -3.6937e-08 -1.3926e-08 0.0 
          -3.43513e-08 -1.3313e-08 0.0 
          -3.57419e-08 -1.50571e-08 0.0 
          -3.40857e-08 -1.63869e-08 0.0 
          -2.78605e-08 -2.26144e-08 0.0 
          -3.07914e-08 -1.95801e-08 0.0 
          -3.37887e-08 -1.83734e-08 0.0 
          -2.40746e-08 -1.86084e-08 0.0 
          -1.99837e-08 -2.55913e-08 0.0 
          -2.55834e-08 -2.13846e-08 0.0 
          -2.06398e-08 -2.18384e-08 0.0 
          -2.57963e-08 -2.16946e-08 0.0 
          -3.03668e-08 -2.1512e-08 0.0 
          -2.86409e-08 -2.3203e-08 0.0 
          -2.64485e-08 -2.48524e-08 0.0 
          -3.07853e-08 -2.13273e-08 0.0 
          -2.23411e-08 -2.76071e-08 0.0 
          -2.44171e-08 -2.61046e-08 0.0 
          -2.06107e-08 -2.66293e-08 0.0 
          -2.17163e-08 -2.52823e-08 0.0 
          -2.20953e-08 -2.70199e-08 0.0 
          -1.87358e-08 -3.03454e-08 0.0 
          -1.85498e-08 -3.06263e-08 0.0 
          -1.80793e-08 -3.09305e-08 0.0 
          -1.5869e-08 -3.23522e-08 0.0 
          -1.51543e-08 -3.24154e-08 0.0 
          -1.32969e-08 -3.35404e-08 0.0 
          -1.96082e-08 -1.62226e-08 0.0 
          -1.80555e-08 -2.00465e-08 0.0 
          -1.3602e-08 -1.78758e-08 0.0 
          -1.58555e-08 -1.63797e-08 0.0 
          -1.72017e-08 -2.04079e-08 0.0 
          -1.7031e-08 -1.7904e-08 0.0 
          -1.36414e-08 -2.73241e-08 0.0 
          -1.58408e-08 -2.49758e-08 0.0 
          -1.2374e-08 -2.38683e-08 0.0 
          -1.17167e-08 -2.55986e-08 0.0 
          -1.28741e-08 -2.46015e-08 0.0 
          -9.09286e-09 -1.74605e-08 0.0 
          -5.00598e-09 -1.74728e-08 0.0 
          -9.65053e-09 -2.21295e-08 0.0 
          -7.50262e-09 -2.24813e-08 0.0 
          -4.77191e-09 -2.04132e-08 0.0 
          -1.98615e-09 -2.08085e-08 0.0 
          -6.03609e-09 -2.47758e-08 0.0 
          -6.11544e-09 -2.38988e-08 0.0 
          -6.30752e-09 -2.63601e-08 0.0 
          -3.3723e-09 -2.54851e-08 0.0 
          -2.02122e-09 -2.84011e-08 0.0 
          -6.33962e-09 -2.48234e-08 0.0 
          -4.11808e-10 -2.51249e-08 0.0 
          -1.52738e-08 -2.72829e-08 0.0 
          -1.28157e-08 -2.8519e-08 0.0 
          -1.05832e-08 -3.37112e-08 0.0 
          -1.15352e-08 -3.41165e-08 0.0 
          -9.18282e-09 -3.40191e-08 0.0 
          -1.36887e-08 -3.25442e-08 0.0 
          -1.34323e-08 -3.16994e-08 0.0 
          -8.05607e-09 -3.37722e-08 0.0 
          -1.09403e-08 -3.42827e-08 0.0 
          -1.36955e-08 -3.15499e-08 0.0 
          -4.03116e-09 -3.13609e-08 0.0 
          -8.51343e-09 -2.82509e-08 0.0 
          -1.81912e-09 -3.15523e-08 0.0 
          -7.71044e-09 -3.23678e-08 0.0 
          -6.48555e-09 -3.39071e-08 0.0 
          -4.43016e-09 -3.55037e-08 0.0 
          -5.6175e-10 -3.49895e-08 0.0 
          -1.42421e-09 -3.63918e-08 0.0 
          -1.60051e-08 -3.18699e-08 0.0 
          -1.53057e-08 -3.23354e-08 0.0 
          -2.14701e-08 -2.75696e-08 0.0 
          -1.76658e-08 -2.86561e-08 0.0 
          -2.04377e-08 -2.82895e-08 0.0 
          -1.8395e-08 -2.83425e-08 0.0 
          -1.69054e-08 -2.92905e-08 0.0 
          -1.38114e-08 -2.96925e-08 0.0 
          -1.13174e-08 -3.17979e-08 0.0 
          -1.48702e-08 -3.11905e-08 0.0 
          -1.17116e-08 -3.43709e-08 0.0 
          -1.48243e-08 -3.32075e-08 0.0 
          -1.46784e-08 -3.34519e-08 0.0 
          -1.47282e-08 -3.31468e-08 0.0 
          -1.23449e-08 -3.48501e-08 0.0 
          -1.46725e-08 -3.34109e-08 0.0 
          -1.55841e-08 -3.26883e-08 0.0 
          -1.13715e-08 -3.58629e-08 0.0 
          -1.18888e-08 -3.48857e-08 0.0 
          -9.39789e-09 -3.60313e-08 0.0 
          -1.03719e-08 -3.65731e-08 0.0 
          -8.23845e-09 -3.80831e-08 0.0 
          -8.82628e-09 -3.47209e-08 0.0 
          -5.8292e-09 -3.31013e-08 0.0 
          -8.30288e-09 -3.47574e-08 0.0 
          -1.39023e-09 -3.28243e-08 0.0 
          -2.64662e-09 -3.59342e-08 0.0 
          -3.85036e-09 -3.33825e-08 0.0 
          -3.26144e-09 -3.24376e-08 0.0 
          -2.24852e-09 -3.59694e-08 0.0 
          -9.74645e-10 -3.49564e-08 0.0 
          -2.59439e-09 -3.50417e-08 0.0 
          -5.39525e-09 -3.74817e-08 0.0 
          -8.39565e-09 -3.67211e-08 0.0 
          -5.91096e-09 -3.9037e-08 0.0 
          -4.72615e-09 -3.97265e-08 0.0 
          -5.61029e-09 -3.74789e-08 0.0 
          -7.44994e-09 -3.80191e-08 0.0 
          -1.80115e-09 -3.87455e-08 0.0 
          -6.94238e-10 -3.81174e-08 0.0 
          -1.77553e-09 -3.7384e-08 0.0 
          -6.77555e-10 -3.9616e-08 0.0 
          -6.38558e-09 -3.71073e-08 0.0 
          -9.31168e-09 -3.61078e-08 0.0 
          -1.05951e-08 -3.51822e-08 0.0 
          -8.30952e-09 -3.65026e-08 0.0 
          -6.05313e-09 -3.77292e-08 0.0 
          -6.12815e-09 -3.73007e-08 0.0 
          -8.44061e-09 -3.79479e-08 0.0 
          -3.28864e-09 -3.90851e-08 0.0 
          -4.37426e-09 -3.72988e-08 0.0 