<?xml version="1.0"?>
<VTKFile type="UnstructuredGrid" version="0.1" byte_order="LittleEndian">
  <UnstructuredGrid>
    <Piece NumberOfPoints="1000" NumberOfCells="1000">
      <Points>
        <DataArray name="Position" type="Float64" NumberOfComponents="3" Format="ascii">
          0.0115825 0.00207399 0.0
          0.0101829 0.00407787 0.0
          0.0262503 0.00157905 0.0
          0.0400724 0.0582536 0.0
          0.0652489 0.0487677 0.0
          0.0754433 0.00995939 0.0
          0.0774007 0.0157802 0.0
          0.0855283 0.0363276 0.0
          0.1085 0.0494832 0.0
          0.0300363 0.0938245 0.0
          0.05424 0.118777 0.0
          0.0580831 0.0918105 0.0
          0.0650027 0.115452 0.0
          0.0810945 0.0820882 0.0
          0.0740208 0.0699718 0.0
          0.122679 0.070464 0.0
          0.136628 0.0295234 0.0
          0.200923 0.014944 0.0
          0.211925 0.0465302 0.0
          0.234309 0.00804507 0.0
          0.132449 0.0948103 0.0
          0.149983 0.094081 0.0
          0.169831 0.0866901 0.0
          0.177554 0.0837057 0.0
          0.180746 0.124809 0.0
          0.196138 0.0838848 0.0
          0.230463 0.0655987 0.0
          0.243931 0.0955684 0.0
          0.0209754 0.169697 0.0
          0.0106856 0.169832 0.0
          0.050786 0.170423 0.0
          0.0094797 0.140254 0.0
          0.0743337 0.171459 0.0
          0.117519 0.125015 0.0
          0.00138707 0.223711 0.0
          0.0547166 0.197739 0.0
          0.0951273 0.217679 0.0
          0.088325 0.215783 0.0
          0.0986304 0.196386 0.0
          0.126751 0.168377 0.0
          0.13577 0.163928 0.0
          0.138431 0.171598 0.0
          0.128232 0.15166 0.0
          0.157763 0.179292 0.0
          0.178751 0.141711 0.0
          0.182266 0.158427 0.0
          0.188818 0.166937 0.0
          0.200563 0.156067 0.0
          0.208593 0.167166 0.0
          0.220229 0.157353 0.0
          0.234978 0.150508 0.0
          0.240415 0.147386 0.0
          0.243766 0.158963 0.0
          0.134482 0.216768 0.0
          0.170406 0.209926 0.0
          0.188745 0.22739 0.0
          0.200888 0.232216 0.0
          0.206047 0.243478 0.0
          0.254989 0.0241701 0.0
          0.303251 0.0369719 0.0
          0.319163 0.0275491 0.0
          0.316851 0.0120281 0.0
          0.363757 0.0222349 0.0
          0.352841 0.0613547 0.0
          0.252675 0.083127 0.0
          0.267876 0.0826569 0.0
          0.264447 0.0839618 0.0
          0.266036 0.0918133 0.0
          0.299987 0.0876438 0.0
          0.303862 0.1142 0.0
          0.31557 0.0847022 0.0
          0.340568 0.103842 0.0
          0.368317 0.107333 0.0
          0.372401 0.105929 0.0
          0.324309 0.122135 0.0
          0.412284 0.0311658 0.0
          0.393159 0.0486951 0.0
          0.413936 0.0491172 0.0
          0.414077 0.0521997 0.0
          0.436 0.0223983 0.0
          0.494026 0.0130883 0.0
          0.444277 0.0141347 0.0
          0.499566 0.0162949 0.0
          0.493629 0.00756846 0.0
          0.466536 0.026107 0.0
          0.483619 0.0258956 0.0
          0.496788 0.00975308 0.0
          0.463962 0.04213 0.0
          0.480885 0.0537517 0.0
          0.394656 0.0790631 0.0
          0.40649 0.0867638 0.0
          0.436556 0.10994 0.0
          0.466272 0.0816181 0.0
          0.488476 0.074591 0.0
          0.479375 0.102532 0.0
          0.26941 0.141411 0.0
          0.270483 0.148467 0.0
          0.274014 0.154481 0.0
          0.252553 0.169984 0.0
          0.309227 0.159112 0.0
          0.31568 0.127662 0.0
          0.360937 0.137581 0.0
          0.371547 0.155267 0.0
          0.261033 0.199773 0.0
          0.253067 0.224146 0.0
          0.275315 0.2264 0.0
          0.303795 0.231487 0.0
          0.273523 0.245863 0.0
          0.307931 0.215694 0.0
          0.349834 0.193059 0.0
          0.343926 0.208519 0.0
          0.318363 0.227339 0.0
          0.346865 0.249138 0.0
          0.408687 0.139185 0.0
          0.381934 0.151073 0.0
          0.375769 0.169094 0.0
          0.410009 0.185804 0.0
          0.493208 0.166821 0.0
          0.497641 0.182642 0.0
          0.480729 0.15935 0.0
          0.445847 0.142215 0.0
          0.48048 0.169972 0.0
          0.465927 0.183098 0.0
          0.399078 0.236046 0.0
          0.407339 0.241848 0.0
          0.496629 0.19086 0.0
          0.473166 0.187531 0.0
          0.468449 0.197603 0.0
          0.471829 0.205026 0.0
          0.46112 0.217724 0.0
          0.446142 0.245945 0.0
          0.0539686 0.295498 0.0
          0.0176525 0.275591 0.0
          0.00165271 0.275718 0.0
          0.0698827 0.310813 0.0
          0.0806177 0.26033 0.0
          0.064184 0.252206 0.0
          0.0208555 0.361613 0.0
          0.0370045 0.345474 0.0
          0.0564061 0.341294 0.0
          0.0439923 0.333365 0.0
          0.0914353 0.366827 0.0
          0.0701906 0.324645 0.0
          0.117648 0.317715 0.0
          0.159056 0.289984 0.0
          0.125979 0.28955 0.0
          0.147987 0.276468 0.0
          0.165349 0.290559 0.0
          0.196258 0.287246 0.0
          0.203611 0.277093 0.0
          0.233033 0.295821 0.0
          0.237025 0.255702 0.0
          0.189969 0.253157 0.0
          0.147234 0.355878 0.0
          0.128147 0.333495 0.0
          0.191273 0.361209 0.0
          0.0411316 0.423529 0.0
          0.0461141 0.389503 0.0
          0.00200331 0.382379 0.0
          0.0169356 0.385031 0.0
          0.0147188 0.386035 0.0
          0.0795935 0.429041 0.0
          0.102597 0.40451 0.0
          0.0678645 0.39613 0.0
          0.100159 0.383347 0.0
          0.105509 0.381585 0.0
          0.0898493 0.493651 0.0
          0.0635676 0.499258 0.0
          0.0934893 0.486826 0.0
          0.0798409 0.477182 0.0
          0.171969 0.431603 0.0
          0.168713 0.385517 0.0
          0.184441 0.383792 0.0
          0.200857 0.430954 0.0
          0.196643 0.411385 0.0
          0.208429 0.424622 0.0
          0.191056 0.427068 0.0
          0.233361 0.416527 0.0
          0.230561 0.381061 0.0
          0.235609 0.392912 0.0
          0.241694 0.405993 0.0
          0.171913 0.462042 0.0
          0.182687 0.464205 0.0
          0.138043 0.44424 0.0
          0.224889 0.490075 0.0
          0.205442 0.483827 0.0
          0.215415 0.443952 0.0
          0.237963 0.448664 0.0
          0.252356 0.266652 0.0
          0.266729 0.258991 0.0
          0.285836 0.281775 0.0
          0.301971 0.250144 0.0
          0.319603 0.277334 0.0
          0.334156 0.287139 0.0
          0.371361 0.26574 0.0
          0.374066 0.286252 0.0
          0.287884 0.321786 0.0
          0.312081 0.329877 0.0
          0.313702 0.326426 0.0
          0.362884 0.325043 0.0
          0.345461 0.335135 0.0
          0.373156 0.328099 0.0
          0.34103 0.369286 0.0
          0.410803 0.259491 0.0
          0.430906 0.269172 0.0
          0.433028 0.276413 0.0
          0.433924 0.279795 0.0
          0.422903 0.292208 0.0
          0.490416 0.271061 0.0
          0.487234 0.258652 0.0
          0.484173 0.262789 0.0
          0.443348 0.259712 0.0
          0.464876 0.288182 0.0
          0.452503 0.27801 0.0
          0.394151 0.313579 0.0
          0.405682 0.34008 0.0
          0.38619 0.339509 0.0
          0.417801 0.371676 0.0
          0.491903 0.340979 0.0
          0.477755 0.320565 0.0
          0.465826 0.340138 0.0
          0.44663 0.327195 0.0
          0.477625 0.370655 0.0
          0.302338 0.393991 0.0
          0.266349 0.435707 0.0
          0.329085 0.407123 0.0
          0.364758 0.413119 0.0
          0.324563 0.432406 0.0
          0.331442 0.428787 0.0
          0.373935 0.38764 0.0
          0.374823 0.434543 0.0
          0.274023 0.44304 0.0
          0.258304 0.471506 0.0
          0.367664 0.442254 0.0
          0.332687 0.464547 0.0
          0.370504 0.473063 0.0
          0.358244 0.482603 0.0
          0.380637 0.408726 0.0
          0.426549 0.454282 0.0
          0.399238 0.455084 0.0
          0.422134 0.472675 0.0
          0.414437 0.497197 0.0
          0.392592 0.49441 0.0
          0.446357 0.452901 0.0
          0.438263 0.457733 0.0
          0.491417 0.492547 0.0
          0.443971 0.490198 0.0
          0.545686 0.0261271 0.0
          0.613104 0.0525444 0.0
          0.583937 0.038341 0.0
          0.566848 0.00128348 0.0
          0.571443 0.00209845 0.0
          0.510141 0.0880446 0.0
          0.541196 0.0996467 0.0
          0.511292 0.096575 0.0
          0.565124 0.100177 0.0
          0.62195 0.0652779 0.0
          0.62389 0.111406 0.0
          0.629317 0.00960347 0.0
          0.67218 0.0574611 0.0
          0.7164 0.0293132 0.0
          0.698662 0.0123157 0.0
          0.734142 0.0401421 0.0
          0.739393 0.00232714 0.0
          0.643219 0.101356 0.0
          0.665775 0.102812 0.0
          0.649655 0.120934 0.0
          0.699271 0.0966792 0.0
          0.708596 0.0776572 0.0
          0.69855 0.0637355 0.0
          0.73543 0.114014 0.0
          0.514826 0.185539 0.0
          0.562169 0.158661 0.0
          0.507902 0.1573 0.0
          0.553304 0.181011 0.0
          0.60904 0.163964 0.0
          0.612581 0.184461 0.0
          0.624273 0.169748 0.0
          0.566707 0.150907 0.0
          0.587238 0.17505 0.0
          0.551536 0.214477 0.0
          0.504876 0.226067 0.0
          0.518381 0.207413 0.0
          0.574895 0.202335 0.0
          0.613381 0.23001 0.0
          0.623293 0.18775 0.0
          0.594809 0.22754 0.0
          0.621573 0.232668 0.0
          0.649716 0.164778 0.0
          0.643526 0.127896 0.0
          0.644495 0.150085 0.0
          0.740272 0.17438 0.0
          0.687529 0.127097 0.0
          0.713835 0.14347 0.0
          0.696527 0.183711 0.0
          0.71957 0.125729 0.0
          0.631093 0.2217 0.0
          0.631751 0.21928 0.0
          0.684096 0.212273 0.0
          0.741415 0.220531 0.0
          0.723888 0.249544 0.0
[...]
      <PointData Scalars="scalars">
        <DataArray type="Float64" Name="velocity" NumberOfComponents="3" Format="ascii">
          -0.000136284 2.19665e-05 0 
          -0.000119941 4.32115e-05 0 
          -0.00030528 1.64976e-05 0 
          -0.00045354 0.000590326 0 
          -0.000726368 0.000461646 0 
          -0.000838145 9.11303e-05 0 
          -0.000856857 0.000143093 0 
          -0.00093017 0.000316552 0 
          -0.00112511 0.00037666 0 
          -0.000333947 0.000960568 0 
          -0.000576163 0.00114581 0 
          -0.000632293 0.000882853 0 
          -0.000686502 0.00107755 0 
          -0.000865489 0.000725238 0 
          -0.000805385 0.00063887 0 
          -0.00122001 0.000479503 0 
          -0.00133966 0.000176818 0 
          -0.00159565 2.03054e-05 0 
          -0.0015907 2.3239e-05 0 
          -0.00159818 -1.0369e-05 0 
          -0.00126188 0.000586573 0 
          -0.00136319 0.000477407 0 
          -0.00146003 0.000321602 0 
          -0.00149041 0.000263258 0 
          -0.00143692 0.000360412 0 
          -0.00153559 0.000145107 0 
          -0.00156919 -6.28107e-05 0 
          -0.00151148 -0.000191581 0 
          -0.000212616 0.00170756 0 
          -0.000109181 0.00172252 0 
          -0.000501711 0.00162476 0 
          -0.000101572 0.00144262 0 
          -0.000715353 0.00151056 0 
          -0.00112137 0.000875429 0 
          -1.27406e-05 0.00220596 0 
          -0.000510907 0.00183866 0 
          -0.000802675 0.00169352 0 
          -0.000757982 0.00174204 0 
          -0.000867838 0.00151649 0 
          -0.00110982 0.00107237 0 
          -0.00117127 0.000959119 0 
          -0.00116989 0.000973221 0 
          -0.00115034 0.000959685 0 
          -0.00124215 0.000795148 0 
          -0.0013983 0.000428535 0 
          -0.00137142 0.000436262 0 
          -0.00136605 0.000378204 0 
          -0.00141073 0.000217515 0 
          -0.00139096 0.00013278 0 
          -0.00141714 -1.43124e-05 0 
          -0.00142225 -0.00018507 0 
          -0.00142141 -0.000244032 0 
          -0.00138877 -0.000301347 0 
          -0.00104344 0.00125226 0 
          -0.00120518 0.000742819 0 
          -0.00119493 0.000508842 0 
          -0.00119491 0.00031868 0 
          -0.0011605 0.000245217 0 
          -0.00155063 -7.10053e-05 0 
          -0.00132729 -0.000235711 0 
          -0.00122674 -0.000202687 0 
          -0.00124649 -8.71646e-05 0 
          -0.00088338 -0.000203209 0 
          -0.000958375 -0.000538416 0 
          -0.00150824 -0.000225215 0 
          -0.00146105 -0.000319287 0 
          -0.00147155 -0.000302778 0 
          -0.00145569 -0.000340795 0 
          -0.00130403 -0.000533224 0 
          -0.00124588 -0.000715101 0 
          -0.00121068 -0.000598028 0 
          -0.00101609 -0.000853765 0 
          -0.00079668 -0.000970616 0 
          -0.000763919 -0.000966635 0 
          -0.00110581 -0.000906265 0 
          -0.000466175 -0.000280437 0 
          -0.000621164 -0.000456185 0 
          -0.000449346 -0.000437889 0 
          -0.000447479 -0.000464872 0 
          -0.00027795 -0.000176403 0 
          -6.10358e-06 -1.38609e-05 0 
          -0.000216595 -0.000103295 0 
          -3.5031e-07 -1.28803e-06 0 
          -6.65341e-06 -8.53893e-06 0 
          -8.7526e-05 -0.000132678 0 
          -2.66522e-05 -7.10817e-05 0 
          -2.77858e-06 -5.63321e-06 0 
          -9.9011e-05 -0.000226318 0 
          -3.37343e-05 -0.000168831 0 
          -0.000596338 -0.000734824 0 
          -0.000496558 -0.000786159 0 
          -0.000257585 -0.000843856 0 
          -8.60428e-05 -0.000413069 0 
          -1.50931e-05 -0.000146581 0 
          -3.67534e-05 -0.000340308 0 
          -0.0013583 -0.000545155 0 
          -0.00133962 -0.000581005 0 
          -0.00131357 -0.000640491 0 
          -0.00134283 -0.00043249 0 
          -0.00113548 -0.00102388 0 
          -0.00115298 -0.000885537 0 
          -0.000822861 -0.00120431 0 
          -0.000718676 -0.00138077 0 
          -0.00124047 -0.000616805 0 
          -0.00118634 -0.000546906 0 
          -0.00111732 -0.000901189 0 
          -0.000987593 -0.00133109 0 
          -0.00106066 -0.000929033 0 
          -0.00101075 -0.00131202 0 
          -0.000816345 -0.00157085 0 
          -0.000823748 -0.00163468 0 
          -0.000925877 -0.00149945 0 
          -0.000716088 -0.00190777 0 
          -0.000449397 -0.00122643 0 
          -0.000642428 -0.00136568 0 
          -0.000668443 -0.00150205 0 
          -0.000403306 -0.0015857 0 
          -6.29379e-06 -0.000190686 0 
          -1.6238e-06 -7.34403e-05 0 
          -3.03928e-05 -0.000485559 0 
          -0.000185089 -0.000984894 0 
          -3.04285e-05 -0.000520692 0 
          -7.56279e-05 -0.000891318 0 
          -0.000420359 -0.00198932 0 
          -0.000363574 -0.0019907 0 
          -2.42883e-06 -0.000108587 0 
          -4.97577e-05 -0.000749111 0 
          -6.41681e-05 -0.000896286 0 
          -5.19583e-05 -0.000843104 0 
          -8.77869e-05 -0.00114517 0 
          -0.000144178 -0.00157952 0 
          -0.000378742 0.00256284 0 
          -0.000137428 0.00259428 0 
          -1.30241e-05 0.00261491 0 
          -0.000452948 0.00252416 0 
          -0.00061975 0.00211368 0 
          -0.000517416 0.00219641 0 
          -0.000109266 0.00311464 0 
          -0.000209622 0.00296286 0 
          -0.000320856 0.00281022 0 
          -0.000263673 0.00285644 0 
          -0.000425529 0.00255545 0 
          -0.000427236 0.00259857 0 
          -0.000675096 0.00197537 0 
          -0.000913387 0.00118577 0 
          -0.000797585 0.00172269 0 
          -0.000925495 0.00132427 0 
          -0.000927561 0.00107585 0 
          -0.000992155 0.00048292 0 
          -0.00103658 0.000327507 0 
          -0.00095664 -0.000243413 0 
          -0.00110606 -0.000304251 0 
          -0.00111061 0.000540474 0 
          -0.000636759 0.0016065 0 
          -0.000663811 0.00187206 0 
          -0.000678768 0.000701628 0 
          -0.000128879 0.00326588 0 
          -0.000195323 0.00311239 0 
          -9.29675e-06 0.00324555 0 
          -7.619e-05 0.00323507 0 
          -6.58521e-05 0.00324485 0 
          -0.00022233 0.00291423 0 
          -0.000349877 0.00252918 0 
          -0.00026619 0.00294619 0 
          -0.000408315 0.00249747 0 
          -0.000430456 0.00241199 0 
          -5.64912e-05 0.00288538 0 
          -3.22479e-05 0.00321145 0 
          -7.85576e-05 0.00282757 0 
          -9.62237e-05 0.00300321 0 
          -0.000346725 0.00124829 0 
          -0.000550697 0.0012437 0 
          -0.000572727 0.000891652 0 
          -0.000354845 0.000560262 0 
          -0.000449031 0.000641814 0 
          -0.000384378 0.000370673 0 
          -0.000373651 0.000793363 0 
          -0.00041195 -0.000242262 0 
          -0.000583824 -0.000185028 0 
          -0.000523804 -0.000302729 0 
          -0.000455916 -0.000448224 0 
          -0.000205427 0.00128645 0 
          -0.00019514 0.00103446 0 
          -0.000267371 0.00199146 0 
          -5.04843e-05 4.58769e-06 0 
          -9.20608e-05 0.000488149 0 
          -0.000286702 0.000213839 0 
          -0.000250107 -0.000345079 0 
          -0.00104123 -0.000601888 0 
          -0.00103532 -0.000847382 0 
          -0.000897297 -0.00123651 0 
          -0.000940534 -0.00138473 0 
          -0.000777787 -0.00175433 0 
          -0.000682031 -0.00198109 0 
          -0.000539486 -0.00216158 0 
          -0.000482972 -0.00228992 0 
          -0.00074197 -0.00137675 0 
          -0.000634155 -0.00183173 0 
          -0.000640585 -0.00184824 0 
          -0.00044992 -0.00241822 0 
          -0.00049398 -0.00230798 0 
          -0.000397587 -0.00249206 0 
          -0.00040444 -0.00237054 0 
          -0.000323537 -0.00207919 0 
          -0.000207542 -0.00193266 0 
          -0.000191378 -0.0019411 0 
          -0.000184477 -0.00194521 0 
          -0.000226558 -0.00214933 0 
          -7.76383e-06 -0.000398628 0 
          -1.24042e-05 -0.000503787 0 
          -1.70645e-05 -0.000621701 0 
          -0.000150826 -0.00169757 0 
          -5.80987e-05 -0.00131624 0 
          -0.000102815 -0.00159828 0 
          -0.000331362 -0.00245365 0 
          -0.000240831 -0.00252437 0 
          -0.00031811 -0.00257779 0 
          -0.000156052 -0.00253512 0 
          -4.42292e-06 -0.000395953 0 
          -2.31184e-05 -0.000968015 0 
          -4.27351e-05 -0.00143316 0 
          -0.000100594 -0.00191928 0 
          -1.70655e-05 -0.00105582 0 
          -0.00041554 -0.00179432 0 
          -0.000287124 -0.00104759 0 
          -0.000306364 -0.00229296 0 
          -0.000211058 -0.00271078 0 
          -0.000221025 -0.00225488 0 
          -0.000223403 -0.00235991 0 
          -0.000254346 -0.00270926 0 
          -0.000135438 -0.00281258 0 
          -0.000243977 -0.00122759 0 
          -0.00012177 -0.000849476 0 
          -0.000125626 -0.00277814 0 
          -9.13672e-05 -0.00240697 0 
          -3.92151e-05 -0.00282072 0 
          -1.64283e-05 -0.00272432 0 
          -0.000186819 -0.00279005 0 
          -3.92383e-05 -0.00259164 0 
          -6.06368e-05 -0.00285438 0 
          -1.97032e-05 -0.00266746 0 
          1.38138e-05 -0.00276139 0 
          1.4828e-05 -0.00288741 0 
          -2.43737e-05 -0.0022072 0 
          -2.68243e-05 -0.00239114 0 
          -1.71938e-07 -0.00047627 0 
          1.7778e-07 -0.00228211 0 
          -5.22986e-08 -1.7812e-09 0 
          -4.61503e-08 -4.55204e-09 0 
          -4.89655e-08 -3.02952e-09 0 
          -5.08165e-08 -9.57886e-11 0 
          -5.04135e-08 -1.59356e-10 0 
          -5.18289e-08 -4.95411e-09 0 
          -5.01866e-08 -6.55478e-09 0 
          -5.13997e-08 -5.45546e-09 0 
          -4.84646e-08 -7.28192e-09 0 
          -4.50554e-08 -5.79124e-09 0 
          -4.30731e-08 -9.80225e-09 0 
          -4.5359e-08 -8.77206e-10 0 
          -4.06604e-08 -5.78608e-09 0 
          -3.64618e-08 -3.23347e-09 0 
          -3.85259e-08 -1.31844e-09 0 
          -3.43498e-08 -4.55433e-09 0 
          -3.40237e-08 -2.67785e-10 0 
          -4.19113e-08 -9.4244e-09 0 
          -3.98028e-08 -1.00854e-08 0 
          -4.04266e-08 -1.1345e-08 0 
          -3.67278e-08 -1.01895e-08 0 
          -3.6366e-08 -8.37672e-09 0 
          -3.77965e-08 -6.76768e-09 0 
          -3.22904e-08 -1.27226e-08 0 
          -4.4912e-08 -1.02547e-08 0 
          -4.49936e-08 -1.11173e-08 0 
          -4.74573e-08 -8.49077e-09 0 
          -4.37718e-08 -1.20824e-08 0 
          -4.10226e-08 -1.34841e-08 0 
          -3.91862e-08 -1.51505e-08 0 
          -3.94579e-08 -1.45492e-08 0 
          -4.52222e-08 -1.08073e-08 0 
          -4.18065e-08 -1.33307e-08 0 
          -4.06941e-08 -1.38977e-08 0 
          -4.08959e-08 -1.14604e-08 0 
          -4.27033e-08 -1.15242e-08 0 
          -4.03229e-08 -1.44959e-08 0 
          -3.50772e-08 -1.83404e-08 0 
          -3.81476e-08 -1.58767e-08 0 
          -3.65342e-08 -1.71515e-08 0 
          -3.42897e-08 -1.89609e-08 0 
          -3.78223e-08 -1.51409e-08 0 
          -4.05884e-08 -1.17838e-08 0 
          -3.92085e-08 -1.37204e-08 0 
          -2.89602e-08 -1.90473e-08 0 
          -3.66171e-08 -1.29434e-08 0 
          -3.32145e-08 -1.52478e-08 0 
          -3.25031e-08 -1.84916e-08 0 
          -3.34727e-08 -1.36039e-08 0 
          -3.46912e-08 -1.87102e-08 0 
          -3.48654e-08 -1.85728e-08 0 
          -3.15121e-08 -2.04494e-08 0 
          -2.60015e-08 -2.34016e-08 0 
          -2.53386e-08 -2.51472e-08 0 
          -2.49749e-08 -2.45513e-08 0 
          -3.13609e-08 -2.85638e-09 0 
          -2.72384e-08 -6.69285e-09 0 
          -2.58328e-08 -1.30515e-09 0 
          -3.24171e-08 -2.11581e-09 0 
          -2.96664e-08 -3.75489e-09 0 
          -2.2665e-08 -6.95939e-09 0 
          -2.17724e-08 -3.42593e-09 0 
          -1.91816e-08 -9.81968e-10 0 
          -2.24844e-08 -1.75271e-09 0 
          -2.31853e-08 -5.21107e-09 0 
          -1.9614e-08 -6.63796e-09 0 
          -1.81094e-08 -7.51608e-09 0 
          -3.14498e-08 -1.01257e-08 0 
          -2.8322e-08 -9.89351e-09 0 
          -2.86944e-08 -1.30871e-08 0 
          -2.47654e-08 -1.197e-08 0 
          -2.16466e-08 -1.30576e-08 0 
          -2.19804e-08 -9.01195e-09 0 
          -1.79744e-08 -1.08207e-08 0 
          -1.98863e-08 -1.30373e-08 0 
          -1.92475e-08 -8.99146e-09 0 
          -2.36475e-08 -9.84188e-09 0 
          -2.12851e-08 -8.45165e-09 0 
          -2.25578e-08 -1.4297e-08 0 
          -2.10131e-08 -1.16101e-08 0 
          -1.6596e-08 -3.07828e-09 0 
          -1.55944e-08 -5.50974e-09 0 
          -1.03365e-08 -1.3018e-09 0 
          -1.41315e-08 -3.48225e-09 0 
          -1.21107e-08 -3.64643e-09 0 
          -4.01343e-09 -6.44461e-09 0 
          -7.12304e-09 -3.71231e-10 0 
          -3.53498e-09 -2.57229e-09 0 
          -1.73965e-10 -2.59287e-09 0 
          -1.34777e-08 -9.72116e-09 0 
          -8.93643e-09 -1.58771e-08 0 
          -1.10468e-08 -1.61752e-08 0 
          -1.11716e-08 -1.08898e-08 0 
          -1.39246e-08 -1.3725e-08 0 
          -1.31158e-08 -1.5143e-08 0 
          -1.0174e-09 -1.35086e-08 0 
          -2.86226e-09 -1.30377e-08 0 
          -1.43034e-09 -1.41503e-08 0 
          -2.5896e-09 -1.63515e-08 0 
          -2.27334e-09 -1.47344e-08 0 
          -2.77021e-08 -1.49005e-08 0 
          -2.73583e-08 -1.83665e-08 0 
          -2.66097e-08 -1.96639e-08 0 
          -2.38244e-08 -2.09716e-08 0 
          -2.38525e-08 -1.72962e-08 0 
          -1.62253e-08 -1.76327e-08 0 
          -1.43935e-08 -2.3089e-08 0 
          -1.75851e-08 -1.71461e-08 0 
          -2.17846e-08 -1.86456e-08 0 
          -1.66731e-08 -2.10518e-08 0 
          -1.8211e-08 -2.0833e-08 0 
          -1.63753e-08 -2.14217e-08 0 
          -2.19609e-08 -2.51737e-08 0 
          -2.37092e-08 -2.54313e-08 0 
          -2.08971e-08 -2.48112e-08 0 
          -2.59034e-08 -2.26492e-08 0 
          -1.83663e-08 -2.73698e-08 0 
          -1.73427e-08 -2.72728e-08 0 
          -1.66263e-08 -2.49586e-08 0 
          -8.43967e-09 -2.18667e-08 0 
          -1.11224e-08 -2.38413e-08 0 
          -1.32634e-08 -2.19796e-08 0 
          -1.34193e-08 -2.10002e-08 0 
          -6.50409e-09 -2.26011e-08 0 
          -6.96045e-09 -1.96298e-08 0 
          -4.10943e-09 -2.28869e-08 0 
          -1.07611e-08 -2.8022e-08 0 
          -1.12178e-08 -3.00505e-08 0 
          -1.04384e-08 -2.43325e-08 0 
          -5.62727e-09 -2.57511e-08 0 
          -6.35483e-09 -2.52873e-08 0 
          -5.39694e-09 -2.47231e-08 0 
          -3.1583e-08 -1.45788e-08 0 
          -3.09487e-08 -1.63629e-08 0 
          -3.2519e-08 -1.40125e-08 0 
          -3.63953e-08 -1.55945e-08 0 
          -3.21497e-08 -1.94173e-08 0 
          -2.46556e-08 -1.52767e-08 0 
          -2.61267e-08 -1.7264e-08 0 
          -2.16789e-08 -1.97956e-08 0 
          -2.39419e-08 -1.80679e-08 0 
          -2.27109e-08 -1.73164e-08 0 
          -2.20737e-08 -2.10654e-08 0 
          -2.39621e-08 -2.32177e-08 0 
          -1.8935e-08 -2.46802e-08 0 
          -2.30974e-08 -2.25589e-08 0 
          -2.114e-08 -2.49946e-08 0 
          -2.64776e-08 -2.43324e-08 0 
          -2.47016e-08 -2.54371e-08 0 
          -2.45902e-08 -2.56937e-08 0 
          -2.90159e-08 -2.29172e-08 0 
          -2.43909e-08 -2.62496e-08 0 
          -2.31428e-08 -2.7158e-08 0 
          -2.73198e-08 -2.40832e-08 0 
          -2.25435e-08 -2.7504e-08 0 
          -2.64944e-08 -2.47775e-08 0 
          -2.76061e-08 -2.3937e-08 0 
          -2.05098e-08 -2.91727e-08 0 
          -2.47138e-08 -2.61125e-08 0 
          -2.36792e-08 -2.56414e-08 0 
          -2.08971e-08 -2.71166e-08 0 
          -2.06549e-08 -2.82554e-08 0 
          -2.13456e-08 -2.64628e-08 0 
          -1.32434e-08 -3.35572e-08 0 
          -1.34075e-08 -3.35616e-08 0 
          -1.92491e-08 -2.92818e-08 0 
          -1.28506e-08 -2.05305e-08 0 
          -1.8655e-08 -1.61592e-08 0 
          -1.78284e-08 -1.80507e-08 0 
          -1.92233e-08 -1.92727e-08 0 
          -1.67288e-08 -2.60327e-08 0 
          -1.85813e-08 -2.28761e-08 0 
          -1.59142e-08 -2.53824e-08 0 
          -9.58243e-09 -2.56564e-08 0 
          -1.35338e-08 -2.36667e-08 0 
          -1.67535e-08 -2.41163e-08 0 
          -1.05804e-08 -2.45366e-08 0 
          -9.51555e-09 -2.27788e-08 0 
          -3.56385e-09 -2.0984e-08 0 
          -1.77375e-10 -2.07223e-08 0 
          -1.66131e-09 -1.98812e-08 0 
          -5.8566e-09 -1.95617e-08 0 
          -2.63766e-10 -2.02571e-08 0 
          -5.52859e-09 -2.79361e-08 0 
          -1.10069e-08 -3.18406e-08 0 
          -1.05357e-08 -3.11266e-08 0 
          -8.87605e-09 -3.04927e-08 0 
          -1.19597e-08 -3.01112e-08 0 
          -1.34112e-08 -3.05444e-08 0 
          -1.36128e-08 -2.73958e-08 0 
          -1.39077e-08 -2.87071e-08 0 
          -1.49187e-08 -2.87466e-08 0 
          -1.03557e-08 -3.45748e-08 0 
          -6.70647e-09 -3.12865e-08 0 
          -9.08709e-10 -3.23628e-08 0 
          -2.23873e-09 -3.21676e-08 0 
          -2.47881e-09 -3.22622e-08 0 
          -3.34815e-09 -3.41275e-08 0 
          -4.92648e-09 -3.48775e-08 0 
          -1.7617e-09 -3.5989e-08 0 
          -1.65745e-09 -3.68552e-08 0 
          -1.18085e-09 -3.61997e-08 0 
          -1.84073e-08 -3.00332e-08 0 
          -1.86858e-08 -2.82121e-08 0 
          -1.74149e-08 -2.95946e-08 0 
          -1.54363e-08 -3.25143e-08 0 
          -1.2601e-08 -2.98978e-08 0 
          -1.19623e-08 -3.2694e-08 0 
          -1.30274e-08 -3.46543e-08 0 
          -1.04773e-08 -3.6427e-08 0 
          -8.28272e-09 -3.71374e-08 0 
          -9.51256e-09 -3.55551e-08 0 
          -1.19723e-08 -3.49359e-08 0 
          -8.07552e-09 -3.76479e-08 0 
          -1.27279e-08 -3.44763e-08 0 
          -9.47013e-09 -3.72171e-08 0 
          -8.65589e-09 -3.28979e-08 0 
          -8.59488e-09 -3.38938e-08 0 
          -6.68997e-09 -3.1411e-08 0 
          -5.88272e-09 -3.23319e-08 0 
          -1.29021e-09 -3.29842e-08 0 
          -3.81629e-09 -3.62756e-08 0 
          -2.27382e-09 -3.65124e-08 0 
          -4.2555e-09 -3.48039e-08 0 
          -1.07178e-10 -3.36446e-08 0 
          -1.99202e-09 -3.18803e-08 0 
          -5.82458e-09 -3.82535e-08 0 
          -5.57902e-09 -3.93063e-08 0 
          -5.03894e-09 -3.96694e-08 0 
          -7.45386e-09 -3.66142e-08 0 
          -8.7388e-09 -3.62062e-08 0 
          -7.95116e-10 -3.98595e-08 0 
          -4.4789e-10 -3.94912e-08 0 
          -1.9612e-09 -4.03296e-08 0 
          -3.17548e-09 -3.70133e-08 0 
          -3.53149e-09 -3.94907e-08 0 
          -3.31823e-09 -3.81979e-08 0 
          -7.08838e-09 -3.82993e-08 0 
          -4.52151e-09 -4.00214e-08 0 
          -8.33419e-09 -3.80443e-08 0 
          -4.77222e-09 -4.06555e-08 0 
          -5.39569e-09 -3.82063e-08 0 
          -1.91023e-09 -3.98158e-08 0 
          -2.4269e-09 -3.84637e-08 0 
          -2.73507e-09 -4.20923e-08 0 
          -2.84188e-09 -4.15493e-08 0 
          -3.38772e-09 -4.1286e-08 0 
          -5.20658e-09 -3.98717e-08 0 
          -2.26646e-09 -4.23136e-08 0 
          -1.40937e-09 -4.19545e-08 0 
          -1.15819e-09 -4.26751e-08 0 
          -1.56242e-09 -4.22263e-08 0 
          -2.09957e-09 -4.10965e-08 0 
          -2.11932e-09 -4.18887e-08 0 
          -2.47311e-09 -4.20144e-08 0 
          -1.61992e-09 -4.27296e-08 0 
          -2.60043e-09 -4.20447e-08 0 
          -3.11556e-10 -4.29627e-08 0 
          -8.73145e-10 -4.27589e-08 0 
          -9.47651e-10 -4.3429e-08 0 
          -2.31941e-10 -4.39266e-08 0 
          -5.21187e-10 -4.37404e-08 0 
          9.73111e-05 0.00320827 0 
          1.95937e-05 0.00350374 0 
          6.16576e-06 0.00352673 0 
          0.000165007 0.00239 0 
          -2.63356e-05 0.00321507 0 
          6.71994e-05 0.003316 0 
          3.9796e-05 0.00337129 0 
          7.0254e-05 0.00333944 0 
          0.000116083 0.00329379 0 
          0.000129016 0.00325738 0 
          4.443e-05 0.00344308 0 