<?xml version="1.0"?>
<VTKFile type="UnstructuredGrid" version="0.1" byte_order="LittleEndian">
  <UnstructuredGrid>
    <Piece NumberOfPoints="10" NumberOfCells="10">
      <Points>
        <DataArray name="Position" type="Float64" NumberOfComponents="3" Format="ascii">
          0.747321 0.483897 0.0
          0.905427 0.425207 0.0
          0.934465 0.387445 0.0
          0.493679 0.737436 0.0
          0.0731898 0.789145 0.0
          0.182344 0.757289 0.0
          0.430107 0.974819 0.0
          0.538602 0.692487 0.0
          0.714807 0.656371 0.0
          0.967838 0.782157 0.0
        </DataArray>
      </Points>
      <Cells>
        <DataArray type="Int32" Name="connectivity" Format="ascii">
          0
          1
          2
          3
          4
          5
          6
          7
          8
          9
        </DataArray>
        <DataArray type="Int32" Name="offsets" Format="ascii">
          1
          2
          3
          4
          5
          6
          7
          8
          9
          10
        </DataArray>
        <DataArray type="UInt8" Name="types" Format="ascii">
          1
          1
          1
          1
          1
          1
          1
          1
          1
          1
        </DataArray>
      </Cells>
      <PointData Scalars="scalars">
        <DataArray type="UInt64" Name="id" NumberOfComponents="1" Format="ascii">
          2
          0
          8
          6
          3
          9
          5
          7
          1
          4
        </DataArray>
      </PointData>
    </Piece>
  </UnstructuredGrid>
</VTKFile>
