<?xml version="1.0"?>
<VTKFile type="UnstructuredGrid" version="0.1" byte_order="LittleEndian">
  <UnstructuredGrid>
    <Piece NumberOfPoints="10" NumberOfCells="10">
      <Points>
        <DataArray name="Position" type="Float64" NumberOfComponents="3" Format="ascii">
          0.119835 0.0706576 0.0
          0.434466 0.0124484 0.0
          0.925211 0.402305 0.0
          0.0598215 0.546401 0.0
          0.0736377 0.613281 0.0
          0.486961 0.780338 0.0
          0.257262 0.961657 0.0
          0.617393 0.577535 0.0
          0.741816 0.730201 0.0
          0.635335 0.7886 0.0
        </DataArray>
      </Points>
      <Cells>
        <DataArray type="Int32" Name="connectivity" Format="ascii">
          0
          1
          2
          3
          4
          5
          6
          7
          8
          9
        </DataArray>
        <DataArray type="Int32" Name="offsets" Format="ascii">
          1
          2
          3
          4
          5
          6
          7
          8
          9
          10
        </DataArray>
        <DataArray type="UInt8" Name="types" Format="ascii">
          1
          1
          1
          1
          1
          1
          1
          1
          1
          1
        </DataArray>
      </Cells>
      <PointData Scalars="scalars">
        <DataArray type="UInt64" Name="id" NumberOfComponents="1" Format="ascii">
          9
          5
          0
          1
          3
          2
          7
          8
          6
          4
        </DataArray>
      </PointData>
    </Piece>
  </UnstructuredGrid>
</VTKFile>
