<?xml version="1.0"?>
<VTKFile type="UnstructuredGrid" version="0.1" byte_order="LittleEndian">
  <UnstructuredGrid>
    <Piece NumberOfPoints="1000" NumberOfCells="1000">
      <Points>
        <DataArray name="Position" type="Float64" NumberOfComponents="3" Format="ascii">
          0.00753289 0.0517038 0.0
          0.0290239 0.0616599 0.0
          0.0635429 0.0556422 0.0
          0.0796602 0.0174493 0.0
          0.0981454 0.0492772 0.0
          0.110895 0.014203 0.0
          0.013745 0.120666 0.0
          0.0373586 0.113691 0.0
          0.0139568 0.0781001 0.0
          0.0515421 0.0875311 0.0
          0.0844561 0.11484 0.0
          0.0938836 0.0783755 0.0
          0.104232 0.11459 0.0
          0.127182 0.0321223 0.0
          0.137434 0.0177126 0.0
          0.148352 0.0565477 0.0
          0.153747 0.0280903 0.0
          0.158359 0.0253831 0.0
          0.176301 0.0531185 0.0
          0.20272 0.0208587 0.0
          0.206983 0.0314087 0.0
          0.236642 0.0342072 0.0
          0.246778 0.00320005 0.0
          0.136506 0.123473 0.0
          0.183848 0.0932151 0.0
          0.201084 0.100963 0.0
          0.198805 0.124697 0.0
          0.204934 0.0852012 0.0
          0.206242 0.0885396 0.0
          0.205807 0.0868658 0.0
          0.232836 0.105953 0.0
          0.242693 0.0969857 0.0
          0.0523144 0.157789 0.0
          0.0581889 0.185244 0.0
          0.0304347 0.130177 0.0
          0.0832625 0.178466 0.0
          0.113337 0.163683 0.0
          0.0831635 0.131297 0.0
          0.116414 0.15138 0.0
          0.0689025 0.12518 0.0
          0.0728904 0.127453 0.0
          0.0974326 0.126488 0.0
          0.0074935 0.242855 0.0
          0.0340202 0.237759 0.0
          0.0230675 0.213983 0.0
          0.0936018 0.238266 0.0
          0.108808 0.21271 0.0
          0.111836 0.247462 0.0
          0.111112 0.233958 0.0
          0.103279 0.201495 0.0
          0.119774 0.240698 0.0
          0.0800064 0.18852 0.0
          0.180182 0.187173 0.0
          0.201692 0.169134 0.0
          0.216358 0.183443 0.0
          0.221755 0.130875 0.0
          0.220345 0.176489 0.0
          0.221964 0.175653 0.0
          0.147701 0.230956 0.0
          0.170979 0.193726 0.0
          0.223456 0.202341 0.0
          0.241679 0.198707 0.0
          0.250345 0.00385376 0.0
          0.251891 0.0580055 0.0
          0.286573 0.015344 0.0
          0.292971 0.0121381 0.0
          0.290743 0.046619 0.0
          0.305475 0.0243293 0.0
          0.307862 0.0263602 0.0
          0.326163 0.0384615 0.0
          0.330121 0.00545125 0.0
          0.355747 0.0598342 0.0
          0.371225 0.0116052 0.0
          0.262311 0.111374 0.0
          0.277622 0.0807406 0.0
          0.302633 0.113568 0.0
          0.345769 0.0694938 0.0
          0.348674 0.0952268 0.0
          0.363314 0.106446 0.0
          0.337976 0.109166 0.0
          0.338926 0.110926 0.0
          0.367698 0.105601 0.0
          0.339517 0.11986 0.0
          0.393657 0.0245275 0.0
          0.411857 0.0226341 0.0
          0.426945 0.0237704 0.0
          0.384221 0.0525397 0.0
          0.391358 0.0544046 0.0
          0.39056 0.0571074 0.0
          0.472731 0.000716334 0.0
          0.498472 0.0315254 0.0
          0.458672 0.0220587 0.0
          0.446574 0.0267198 0.0
          0.479445 0.0580052 0.0
          0.398192 0.0879947 0.0
          0.426282 0.0792125 0.0
          0.427341 0.0981438 0.0
          0.491814 0.108663 0.0
          0.489571 0.0660812 0.0
          0.491375 0.114471 0.0
          0.263244 0.142971 0.0
          0.256235 0.160379 0.0
          0.268614 0.137526 0.0
          0.268827 0.167989 0.0
          0.307448 0.136447 0.0
          0.321381 0.143473 0.0
          0.358094 0.173039 0.0
          0.330557 0.178678 0.0
          0.256864 0.216313 0.0
          0.27391 0.215851 0.0
          0.294742 0.218245 0.0
          0.314521 0.202112 0.0
          0.361905 0.203294 0.0
          0.360072 0.243092 0.0
          0.412661 0.133059 0.0
          0.385121 0.141212 0.0
          0.395536 0.144188 0.0
          0.381731 0.147231 0.0
          0.403273 0.149207 0.0
          0.481254 0.143315 0.0
          0.467145 0.156153 0.0
          0.413838 0.208473 0.0
          0.435166 0.231403 0.0
          0.436936 0.216296 0.0
          0.495126 0.208864 0.0
          0.47959 0.230643 0.0
          0.461025 0.216351 0.0
          0.453566 0.231217 0.0
          0.0524804 0.301372 0.0
          0.0463463 0.287989 0.0
          0.0424159 0.265622 0.0
          0.0591106 0.310599 0.0
          0.094795 0.297482 0.0
          0.0486669 0.37411 0.0
          0.0236883 0.353038 0.0
          0.0416134 0.342946 0.0
          0.0440483 0.342328 0.0
          0.0545755 0.333539 0.0
          0.0348564 0.324177 0.0
          0.0414348 0.313931 0.0
          0.00582816 0.314738 0.0
          0.0713328 0.37106 0.0
          0.0735583 0.365806 0.0
          0.121495 0.364195 0.0
          0.0905835 0.319064 0.0
          0.141756 0.284971 0.0
          0.173167 0.296634 0.0
          0.213176 0.290088 0.0
          0.220891 0.302187 0.0
          0.229489 0.26213 0.0
          0.233119 0.307249 0.0
          0.243199 0.280444 0.0
          0.134697 0.370295 0.0
          0.134978 0.34598 0.0
          0.176742 0.363242 0.0
          0.172748 0.32549 0.0
          0.161145 0.322952 0.0
          0.183361 0.357503 0.0
          0.183573 0.320727 0.0
          0.1843 0.343936 0.0
          0.231658 0.329061 0.0
          0.190073 0.316438 0.0
          0.18759 0.313948 0.0
          0.0090603 0.436719 0.0
          0.0580669 0.432094 0.0
          0.0436755 0.391635 0.0
          0.00529834 0.387828 0.0
          0.0707138 0.437036 0.0
          0.119386 0.416075 0.0
          0.000256878 0.485008 0.0
          0.0178092 0.478233 0.0
          0.0472348 0.469868 0.0
          0.011936 0.44177 0.0
          0.0961956 0.493804 0.0
          0.0942347 0.493747 0.0
          0.10599 0.440802 0.0
          0.173991 0.430845 0.0
          0.163323 0.402018 0.0
          0.175925 0.395679 0.0
          0.13669 0.397594 0.0
          0.127028 0.385836 0.0
          0.18288 0.379342 0.0
          0.175125 0.376699 0.0
          0.236682 0.390786 0.0
          0.237848 0.435237 0.0
          0.147536 0.487317 0.0
          0.180758 0.469388 0.0
          0.16034 0.469317 0.0
          0.184848 0.466194 0.0
          0.186949 0.44146 0.0
          0.216107 0.483935 0.0
          0.214794 0.445506 0.0
          0.197385 0.485705 0.0
          0.204542 0.486727 0.0
          0.270491 0.265986 0.0
          0.274724 0.273411 0.0
          0.253444 0.291284 0.0
          0.336363 0.252055 0.0
          0.364177 0.264058 0.0
          0.346717 0.296936 0.0
          0.334276 0.306239 0.0
          0.269327 0.316534 0.0
          0.267564 0.342476 0.0
          0.282733 0.338593 0.0
          0.309001 0.345875 0.0
          0.312345 0.350842 0.0
          0.315874 0.322105 0.0
          0.355744 0.317871 0.0
          0.36615 0.319256 0.0
          0.319504 0.350006 0.0
          0.323169 0.34836 0.0
          0.374291 0.372617 0.0
          0.410855 0.251354 0.0
          0.392588 0.257401 0.0
          0.408247 0.280092 0.0
          0.392908 0.27905 0.0
          0.37746 0.280868 0.0
          0.428381 0.297493 0.0
          0.474747 0.262837 0.0
          0.470925 0.281775 0.0
          0.446365 0.305663 0.0
          0.418852 0.325872 0.0
          0.424807 0.344453 0.0
          0.425744 0.357775 0.0
          0.407833 0.354504 0.0
          0.386804 0.361397 0.0
          0.496328 0.318905 0.0
          0.476857 0.339328 0.0
          0.439102 0.344274 0.0
          0.452911 0.363062 0.0
          0.270404 0.380142 0.0
          0.26322 0.435512 0.0
          0.31205 0.433423 0.0
          0.334765 0.37915 0.0
          0.33956 0.403002 0.0
          0.343497 0.403713 0.0
          0.340229 0.407838 0.0
          0.355402 0.419502 0.0
          0.258882 0.454982 0.0
          0.254679 0.460635 0.0
          0.301309 0.442985 0.0
          0.282744 0.464068 0.0
          0.299301 0.461064 0.0
          0.280671 0.498489 0.0
          0.372569 0.47116 0.0
          0.34414 0.487407 0.0
          0.418403 0.380621 0.0
          0.400374 0.390094 0.0
          0.398124 0.397034 0.0
          0.485858 0.38529 0.0
          0.488389 0.405019 0.0
          0.470917 0.384532 0.0
          0.45452 0.402676 0.0
          0.484939 0.428771 0.0
          0.444367 0.421254 0.0
          0.473418 0.434034 0.0
          0.437125 0.438306 0.0
          0.409751 0.490859 0.0
          0.419906 0.497513 0.0
          0.375898 0.498551 0.0
          0.49963 0.485278 0.0
          0.469795 0.454864 0.0
          0.464956 0.458356 0.0
          0.45976 0.463765 0.0
          0.462417 0.486778 0.0
          0.446906 0.488154 0.0
          0.522564 0.0302267 0.0
          0.50836 0.0389842 0.0
          0.518267 0.00972437 0.0
          0.547471 0.0619395 0.0
          0.504354 0.0357145 0.0
          0.594024 0.00834009 0.0
          0.571275 0.011671 0.0
          0.576721 0.0158479 0.0
          0.524698 0.118488 0.0
          0.57644 0.0932904 0.0
          0.56729 0.0716948 0.0
          0.592309 0.10427 0.0
          0.595866 0.0895519 0.0
          0.602686 0.0897542 0.0
          0.652875 0.0147654 0.0
          0.630177 0.0273447 0.0
          0.638274 0.0471683 0.0
          0.67382 0.00758147 0.0
          0.672948 0.00739258 0.0
          0.746444 0.0464684 0.0
          0.663941 0.115554 0.0
          0.674532 0.122963 0.0
          0.64879 0.0695917 0.0
          0.645053 0.111181 0.0
          0.686865 0.0814104 0.0
          0.687668 0.0659456 0.0
          0.560155 0.161216 0.0
          0.523429 0.173464 0.0
          0.547824 0.12792 0.0
          0.608118 0.176327 0.0
          0.586448 0.152901 0.0
          0.596091 0.159146 0.0
          0.548178 0.249429 0.0
          0.531177 0.190868 0.0
          0.549216 0.233692 0.0
[...]
      <PointData Scalars="scalars">
        <DataArray type="Float64" Name="velocity" NumberOfComponents="3" Format="ascii">
          -8.78068e-05 0.000545022 0 
          -0.000330795 0.000636609 0 
          -0.000706232 0.000529375 0 
          -0.000878668 0.000156641 0 
          -0.00103845 0.000400681 0 
          -0.00115673 0.000106784 0 
          -0.00015055 0.00124689 0 
          -0.000404722 0.00114282 0 
          -0.00015924 0.000816958 0 
          -0.000566214 0.00085862 0 
          -0.000868796 0.000989746 0 
          -0.000983425 0.000650057 0 
          -0.0010348 0.000884949 0 
          -0.0012757 0.000211008 0 
          -0.00134833 0.000105334 0 
          -0.00139283 0.000294908 0 
          -0.00143737 0.000136739 0 
          -0.00146085 0.000115541 0 
          -0.00151733 0.000172565 0 
          -0.00159635 2.5406e-05 0 
          -0.00159655 2.77854e-05 0 
          -0.00158622 -5.01613e-05 0 
          -0.00157627 -7.35436e-06 0 
          -0.00124766 0.000727507 0 
          -0.00149634 0.000248564 0 
          -0.00151877 0.000136292 0 
          -0.0014749 0.000190348 0 
          -0.00154575 8.95686e-05 0 
          -0.0015425 8.41596e-05 0 
          -0.00154438 8.54724e-05 0 
          -0.00151265 -0.000118107 0 
          -0.00151179 -0.000184687 0 
          -0.000527258 0.00150726 0 
          -0.000555735 0.00171647 0 
          -0.000325072 0.00131668 0 
          -0.000780409 0.00150724 0 
          -0.00103057 0.00116587 0 
          -0.000840227 0.00113246 0 
          -0.00107296 0.00105906 0 
          -0.0007161 0.00114838 0 
          -0.000751514 0.00115055 0 
          -0.000966118 0.00101447 0 
          -6.51185e-05 0.00235972 0 
          -0.000293465 0.00225702 0 
          -0.000213236 0.00209601 0 
          -0.000750885 0.00184425 0 
          -0.000904349 0.00152586 0 
          -0.000842559 0.00169975 0 
          -0.000870944 0.00162989 0 
          -0.000890608 0.00150843 0 
          -0.000904314 0.00156407 0 
          -0.000739221 0.00160757 0 
          -0.00129493 0.000539831 0 
          -0.00138031 0.000221661 0 
          -0.00135057 4.0953e-05 0 
          -0.00147506 -2.99447e-05 0 
          -0.00136891 -1.44937e-05 0 
          -0.00137065 -3.59855e-05 0 
          -0.00106504 0.00114332 0 
          -0.00125182 0.000682634 0 
          -0.00129468 -5.82375e-05 0 
          -0.00128649 -0.000329287 0 
          -0.00156763 -9.95495e-06 0 
          -0.00153767 -0.000154953 0 
          -0.00142835 -8.09804e-05 0 
          -0.00139535 -6.94414e-05 0 
          -0.00139305 -0.000257903 0 
          -0.00131866 -0.000158978 0 
          -0.00130271 -0.000176219 0 
          -0.00117323 -0.000296701 0 
          -0.00115322 -4.33662e-05 0 
          -0.000935798 -0.000530507 0 
          -0.000819936 -0.00010809 0 
          -0.00143847 -0.000378606 0 
          -0.00142458 -0.000369235 0 
          -0.00125395 -0.000702476 0 
          -0.00100862 -0.00059208 0 
          -0.000964371 -0.000814265 0 
          -0.000838323 -0.000951223 0 
          -0.00102872 -0.000884015 0 
          -0.00101978 -0.000901933 0 
          -0.000803347 -0.00095429 0 
          -0.00100436 -0.000973606 0 
          -0.000622612 -0.000230617 0 
          -0.000470774 -0.000204277 0 
          -0.00034897 -0.000199451 0 
          -0.000695934 -0.000493281 0 
          -0.000634462 -0.000509911 0 
          -0.000640204 -0.000535261 0 
          -6.1742e-05 -3.09201e-06 0 
          -1.19443e-06 -8.70115e-06 0 
          -0.000126783 -0.000131829 0 
          -0.000200257 -0.00018994 0 
          -3.78726e-05 -0.000194221 0 
          -0.000562835 -0.000811573 0 
          -0.000343916 -0.000660413 0 
          -0.000329895 -0.000807868 0 
          -8.88197e-06 -0.000152655 0 
          -1.30724e-05 -0.000118396 0 
          -9.49589e-06 -0.000168685 0 
          -0.00137567 -0.00048658 0 
          -0.001357 -0.000455938 0 
          -0.00136902 -0.000523618 0 
          -0.00130078 -0.000628161 0 
          -0.0011885 -0.000875422 0 
          -0.00109095 -0.00103126 0 
          -0.000794034 -0.00147008 0 
          -0.00096795 -0.00133462 0 
          -0.00120209 -0.000592192 0 
          -0.00115401 -0.000848035 0 
          -0.00106632 -0.0011503 0 
          -0.00101011 -0.00132089 0 
          -0.000717007 -0.00170958 0 
          -0.000652646 -0.00196448 0 
          -0.000423736 -0.00116028 0 
          -0.000627768 -0.00128522 0 
          -0.00054463 -0.00130331 0 
          -0.000648123 -0.00133368 0 
          -0.000482245 -0.00132689 0 
          -2.98324e-05 -0.000429644 0 
          -7.4808e-05 -0.000750534 0 
          -0.000357735 -0.00172681 0 
          -0.000210677 -0.00166727 0 
          -0.000209116 -0.0015559 0 
          -3.7059e-06 -0.0001685 0 
          -2.83907e-05 -0.000704947 0 
          -8.84821e-05 -0.00114124 0 
          -0.000115697 -0.00136623 0 
          -0.000360313 0.00261032 0 
          -0.000336954 0.00256366 0 
          -0.000334396 0.00243064 0 
          -0.00038816 0.00261696 0 
          -0.000622745 0.00218439 0 
          -0.000229572 0.00302857 0 
          -0.000130193 0.00306162 0 
          -0.000237946 0.00292322 0 
          -0.00025213 0.0029049 0 
          -0.000323609 0.00278349 0 
          -0.000220186 0.00285433 0 
          -0.000272561 0.00275786 0 
          -3.93518e-05 0.00287839 0 
          -0.000334649 0.0028108 0 
          -0.000355797 0.00276444 0 
          -0.000537066 0.00209556 0 
          -0.000547098 0.0023484 0 
          -0.000875351 0.00145773 0 
          -0.000922298 0.000948673 0 
          -0.000988796 0.000154054 0 
          -0.000938619 5.33384e-06 0 
          -0.00109009 -0.000167567 0 
          -0.000909785 -0.000247058 0 
          -0.00100516 -0.00043991 0 
          -0.000551856 0.00188255 0 
          -0.000641828 0.00179946 0 
          -0.000656855 0.0010266 0 
          -0.000808761 0.0010285 0 
          -0.000796021 0.00124794 0 
          -0.00068878 0.000871649 0 
          -0.000844423 0.000798165 0 
          -0.000748207 0.000826756 0 
          -0.000818407 -0.000217585 0 
          -0.00086953 0.000655538 0 
          -0.000877038 0.000702219 0 
          -2.5138e-05 0.00343276 0 
          -0.000161989 0.00315649 0 
          -0.000182415 0.00313772 0 
          -2.35677e-05 0.00326735 0 
          -0.000182177 0.00303903 0 
          -0.000348818 0.00228552 0 
          -2.79868e-07 0.00353091 0 
          -2.33086e-05 0.00349636 0 
          -7.28923e-05 0.0033283 0 
          -3.09502e-05 0.00344108 0 
          -5.81265e-05 0.00279335 0 
          -5.76896e-05 0.00282238 0 
          -0.000239269 0.00256699 0 
          -0.00035113 0.00120109 0 
          -0.000472674 0.00139109 0 
          -0.000512623 0.00110348 0 
          -0.000451751 0.00192077 0 
          -0.000475464 0.00206809 0 
          -0.000591705 0.000920091 0 
          -0.000596398 0.00108768 0 
          -0.000532982 -0.000328747 0 
          -0.000316784 -0.000346666 0 
          -9.04005e-05 0.00184824 0 
          -0.000170526 0.00108542 0 
          -0.000170741 0.00155546 0 
          -0.000185335 0.00098401 0 
          -0.000304323 0.00090893 0 
          -8.62619e-05 0.000221638 0 
          -0.000279232 0.000230189 0 
          -8.62852e-05 0.000689851 0 
          -7.79907e-05 0.000512484 0 
          -0.0010003 -0.000928982 0 
          -0.000961692 -0.00102101 0 
          -0.000945548 -0.000654991 0 
          -0.000766234 -0.00182874 0 
          -0.000584464 -0.0021153 0 
          -0.00059616 -0.00215787 0 
          -0.000625456 -0.00206642 0 
          -0.000811112 -0.00100808 0 
          -0.000707534 -0.00101028 0 
          -0.000689246 -0.00131302 0 
          -0.000586297 -0.00182245 0 
          -0.000557358 -0.00189458 0 
          -0.00064767 -0.00186961 0 
          -0.000499435 -0.00233318 0 
          -0.00044951 -0.00241384 0 
          -0.000537569 -0.00201263 0 
          -0.000531356 -0.00206537 0 
          -0.000289568 -0.00266629 0 
          -0.000332429 -0.00202918 0 
          -0.000429428 -0.00214365 0 
          -0.000312396 -0.00221565 0 
          -0.000394255 -0.00227272 0 
          -0.000475012 -0.00227252 0 
          -0.0001962 -0.00210774 0 
          -3.64679e-05 -0.000940107 0 
          -4.3122e-05 -0.00111352 0 
          -0.000113308 -0.0018439 0 
          -0.000208109 -0.00235182 0 
          -0.00016504 -0.00235568 0 
          -0.000147779 -0.00239069 0 
          -0.000211537 -0.0025663 0 
          -0.000271979 -0.00266278 0 
          -1.75801e-06 -0.000176379 0 
          -2.22747e-05 -0.00103702 0 
          -0.000115217 -0.00213092 0 
          -6.40917e-05 -0.00187619 0 
          -0.000537805 -0.00111239 0 
          -0.000291502 -0.000973345 0 
          -0.000236507 -0.00202968 0 
          -0.000390203 -0.00231666 0 
          -0.0002977 -0.00243321 0 
          -0.000286404 -0.00248383 0 
          -0.000279974 -0.00245099 0 
          -0.000211607 -0.00264232 0 
          -0.000201846 -0.00086782 0 
          -0.000177826 -0.000762609 0 
          -0.000211689 -0.00182149 0 
          -0.000137532 -0.00142738 0 
          -0.000135913 -0.00178592 0 
          2.13102e-05 -0.00137014 0 
          -4.32282e-05 -0.00283312 0 
          -4.33236e-06 -0.0025683 0 
          -0.000142969 -0.00255594 0 
          -0.000176574 -0.00272723 0 
          -0.000169876 -0.00275533 0 
          -7.33264e-06 -0.000712842 0 
          -4.52241e-06 -0.000606255 0 
          -2.35466e-05 -0.00134107 0 
          -4.23328e-05 -0.0019192 0 
          -4.98657e-06 -0.000786322 0 
          -4.76886e-05 -0.00221487 0 
          -1.12756e-05 -0.00130061 0 
          -4.44878e-05 -0.00239238 0 
          5.15656e-06 -0.00280513 0 
          1.25028e-05 -0.0026998 0 
          2.8469e-05 -0.00285244 0 
          -1.41587e-08 -2.1489e-05 0 
          -9.07056e-06 -0.001461 0 
          -1.04593e-05 -0.00164536 0 
          -1.0963e-05 -0.00182838 0 
          -1.91659e-06 -0.00174608 0 
          -1.36196e-06 -0.00221088 0 
          -5.33464e-08 -1.84253e-09 0 
          -5.34975e-08 -2.19222e-09 0 
          -5.36875e-08 -5.81138e-10 0 
          -5.13712e-08 -4.23238e-09 0 
          -5.35993e-08 -1.96146e-09 0 
          -4.84269e-08 -6.85142e-10 0 
          -5.03949e-08 -8.84434e-10 0 
          -4.98907e-08 -1.22462e-09 0 
          -4.98527e-08 -7.14542e-09 0 
          -4.78462e-08 -7.09343e-09 0 
          -4.94946e-08 -5.29992e-09 0 
          -4.60097e-08 -8.34849e-09 0 
          -4.63847e-08 -7.29074e-09 0 
          -4.58066e-08 -7.46861e-09 0 
          -4.31787e-08 -1.43167e-09 0 
          -4.5137e-08 -2.49678e-09 0 
          -4.40927e-08 -4.38714e-09 0 
          -4.11537e-08 -7.72064e-10 0 
          -4.12428e-08 -7.51423e-10 0 
          -3.28583e-08 -5.36878e-09 0 
          -3.94075e-08 -1.1236e-08 0 
          -3.80653e-08 -1.22064e-08 0 
          -4.25727e-08 -6.62299e-09 0 
          -4.13063e-08 -1.03494e-08 0 
          -3.85182e-08 -8.4126e-09 0 
          -3.88793e-08 -6.85095e-09 0 
          -4.49471e-08 -1.11916e-08 0 
          -4.58034e-08 -1.01175e-08 0 
          -4.81653e-08 -8.5753e-09 0 
          -4.01586e-08 -1.43579e-08 0 
          -4.35464e-08 -1.1756e-08 0 
          -4.23564e-08 -1.2597e-08 0 
          -3.70565e-08 -1.54973e-08 0 
          -4.39688e-08 -1.14572e-08 0 
          -3.87844e-08 -1.47746e-08 0 
          -3.85281e-08 -1.50388e-08 0 
          -4.24229e-08 -1.29079e-08 0 
          -3.5309e-08 -1.80491e-08 0 
          -4.05993e-08 -1.43226e-08 0 
          -3.53215e-08 -1.82188e-08 0 
          -3.95915e-08 -1.50447e-08 0 
          -3.76587e-08 -1.61883e-08 0 
          -3.82404e-08 -1.60248e-08 0 
          -3.76549e-08 -1.38078e-08 0 
          -3.37272e-08 -1.77631e-08 0 
          -3.94083e-08 -1.36831e-08 0 
          -3.39127e-08 -1.69205e-08 0 
          -3.18085e-08 -1.72901e-08 0 
          -3.21407e-08 -2.05461e-08 0 
          -3.43596e-08 -1.79759e-08 0 
          -3.05829e-08 -2.17493e-08 0 
          -2.73454e-08 -2.1299e-08 0 
          -2.71446e-08 -2.38438e-08 0 
          -2.47e-08 -2.54979e-08 0 
          -2.88053e-08 -2.2425e-08 0 
          -3.15363e-08 -1.97698e-08 0 
          -2.94823e-08 -2.2109e-08 0 
          -2.31576e-08 -2.94267e-09 0 
          -2.99776e-08 -1.22359e-08 0 
          -3.12501e-08 -8.38662e-09 0 
          -2.91052e-08 -1.14177e-08 0 
          -1.68679e-08 -1.11372e-08 0 
          -1.89135e-08 -8.87262e-09 0 
          -2.28393e-08 -1.10863e-08 0 
          -8.6697e-09 -5.20556e-09 0 
          -6.80533e-09 -5.80158e-09 0 
          -3.32429e-09 -3.44003e-09 0 
          -3.76605e-09 -6.03175e-09 0 
          -5.76209e-09 -2.56597e-09 0 
          -1.36391e-09 -3.10848e-09 0 
          -1.227e-08 -9.81486e-09 0 
          -8.64054e-09 -1.13129e-08 0 
          -1.49477e-08 -1.32595e-08 0 
          -1.54964e-08 -9.64704e-09 0 
          -1.28074e-09 -1.22915e-08 0 
          -5.62147e-09 -1.14138e-08 0 
          -6.61405e-09 -8.57833e-09 0 
          -2.9188e-08 -1.58851e-08 0 
          -2.31759e-08 -2.01752e-08 0 
          -2.3064e-08 -1.93735e-08 0 
          -1.46536e-08 -2.34023e-08 0 
          -1.6566e-08 -1.81004e-08 0 
          -1.92555e-08 -1.84079e-08 0 
          -2.04448e-08 -2.1987e-08 0 
          -1.6402e-08 -2.01489e-08 0 
          -2.28919e-08 -1.5927e-08 0 
          -1.7876e-08 -1.71444e-08 0 
          -2.49987e-08 -2.27784e-08 0 
          -1.43225e-08 -2.36822e-08 0 
          -1.68752e-08 -2.69522e-08 0 
          -1.4515e-08 -1.90972e-08 0 
          -1.32945e-08 -2.16971e-08 0 
          -2.13011e-09 -1.84166e-08 0 
          -7.43328e-09 -2.08617e-08 0 
          -3.21604e-09 -1.70448e-08 0 
          -5.33314e-09 -2.25335e-08 0 
          -1.13471e-08 -2.63222e-08 0 
          -8.38303e-09 -2.92545e-08 0 
          -3.70973e-09 -2.69854e-08 0 
          -4.49191e-09 -2.54936e-08 0 
          -1.48896e-10 -2.81252e-08 0 
          -5.72993e-10 -2.58422e-08 0 
          -3.11661e-08 -1.70278e-08 0 
          -3.35711e-08 -1.34346e-08 0 
          -3.58988e-08 -1.63376e-08 0 
          -3.48298e-08 -1.35472e-08 0 
          -3.08777e-08 -1.4977e-08 0 
          -3.43102e-08 -1.39068e-08 0 
          -3.31701e-08 -1.47229e-08 0 
          -3.33031e-08 -1.37233e-08 0 
          -3.35254e-08 -1.89386e-08 0 
          -2.67671e-08 -2.31342e-08 0 
          -2.54911e-08 -1.71406e-08 0 
          -2.25023e-08 -1.74164e-08 0 
          -2.70815e-08 -1.90007e-08 0 
          -2.44911e-08 -2.13811e-08 0 
          -2.25107e-08 -2.41241e-08 0 
          -2.56515e-08 -2.23137e-08 0 
          -2.51891e-08 -2.57423e-08 0 
          -2.456e-08 -2.59748e-08 0 
          -2.84988e-08 -2.32822e-08 0 
          -2.93255e-08 -2.26781e-08 0 
          -2.19949e-08 -2.7865e-08 0 
          -2.28116e-08 -2.75118e-08 0 
          -2.06095e-08 -2.91173e-08 0 
          -2.45893e-08 -2.62112e-08 0 
          -2.40807e-08 -2.6582e-08 0 
          -2.40508e-08 -2.49954e-08 0 
          -1.9033e-08 -2.65026e-08 0 
          -2.10802e-08 -2.77675e-08 0 
          -1.84928e-08 -3.03992e-08 0 
          -1.72642e-08 -3.10725e-08 0 
          -1.67517e-08 -3.07517e-08 0 
          -1.94982e-08 -2.98175e-08 0 
          -1.63286e-08 -1.89194e-08 0 
          -1.24456e-08 -2.22555e-08 0 
          -9.94163e-09 -2.62792e-08 0 
          -1.35095e-08 -2.58984e-08 0 
          -1.46999e-08 -2.51846e-08 0 
          -1.53379e-08 -2.56808e-08 0 
          -1.71744e-08 -2.3993e-08 0 
          -1.82705e-08 -2.41427e-08 0 
          -3.38785e-09 -1.97123e-08 0 
          -1.86722e-09 -1.82815e-08 0 
          -4.10511e-09 -2.76788e-08 0 
          -7.5932e-09 -2.53122e-08 0 
          -5.9367e-09 -2.49575e-08 0 
          -2.92979e-09 -2.5625e-08 0 
          -1.46449e-08 -2.95754e-08 0 
          -1.23032e-08 -3.12457e-08 0 
          -1.0763e-08 -3.47161e-08 0 
          -9.88286e-09 -3.42047e-08 0 
          -9.99588e-09 -3.43015e-08 0 
          -1.43954e-08 -3.13115e-08 0 
          -8.87001e-09 -3.33095e-08 0 
          -1.09898e-08 -3.39379e-08 0 
          -8.95061e-09 -3.46161e-08 0 
          -5.94896e-09 -2.97031e-08 0 
          -2.36826e-09 -2.96908e-08 0 
          -7.12479e-09 -2.88073e-08 0 
          -5.61409e-10 -3.48156e-08 0 
          -3.75237e-09 -3.31461e-08 0 
          -1.53097e-09 -3.43707e-08 0 
          -7.32887e-10 -3.52146e-08 0 
          -1.33964e-09 -3.44555e-08 0 
          -1.85993e-08 -2.89763e-08 0 
          -1.86526e-08 -2.88213e-08 0 
          -1.6704e-08 -3.16259e-08 0 
          -1.87781e-08 -2.8862e-08 0 
          -2.0583e-08 -2.76541e-08 0 
          -1.46194e-08 -3.129e-08 0 
          -1.34364e-08 -3.07481e-08 0 
          -1.45246e-08 -3.23904e-08 0 
          -1.25815e-08 -3.36303e-08 0 
          -1.24056e-08 -3.35969e-08 0 
          -1.30783e-08 -3.45423e-08 0 
          -1.19296e-08 -3.53787e-08 0 
          -1.30515e-08 -3.45448e-08 0 
          -1.22179e-08 -3.47714e-08 0 
          -1.11074e-08 -3.55082e-08 0 
          -8.84467e-09 -3.70112e-08 0 
          -9.81647e-09 -3.67574e-08 0 
          -1.01137e-08 -3.67454e-08 0 
          -7.21159e-09 -3.85492e-08 0 
          -8.65919e-09 -3.1955e-08 0 
          -9.60304e-09 -3.13885e-08 0 
          -9.96068e-09 -3.04467e-08 0 
          -6.53682e-09 -3.21861e-08 0 
          -1.16333e-09 -3.22884e-08 0 
          -1.92383e-09 -3.14942e-08 0 
          -6.27304e-09 -3.66304e-08 0 
          -8.30531e-09 -3.64364e-08 0 
          -6.21823e-09 -3.61982e-08 0 
          -5.76147e-09 -3.9238e-08 0 
          -4.92989e-09 -3.9738e-08 0 
          -7.03562e-09 -3.73253e-08 0 
          -4.44946e-09 -3.90651e-08 0 
          -2.21681e-09 -3.84177e-08 0 
          -2.58875e-09 -3.82644e-08 0 
          -3.28297e-09 -3.92283e-08 0 
          -1.73643e-09 -3.92473e-08 0 
          -7.51131e-09 -3.65611e-08 0 
          -8.33135e-09 -3.62465e-08 0 
          -5.72162e-09 -3.99275e-08 0 
          -4.20817e-09 -4.05706e-08 0 
          -7.80143e-09 -3.84528e-08 0 
          -6.13081e-09 -3.96689e-08 0 
          -4.77293e-09 -3.98218e-08 0 
          -2.38544e-09 -4.14372e-08 0 
          -3.73014e-09 -4.02037e-08 0 
          -2.5157e-09 -4.15196e-08 0 
          -5.0146e-09 -4.04413e-08 0 
          -3.52139e-09 -4.14612e-08 0 
          -1.27642e-09 -4.10538e-08 0 
          -1.84172e-10 -4.17248e-08 0 
          -1.51525e-09 -4.07897e-08 0 
          -1.57473e-09 -4.17631e-08 0 
          -2.03762e-09 -4.14351e-08 0 
          -5.21744e-10 -4.16083e-08 0 
          -1.31144e-09 -4.31071e-08 0 
          -2.2745e-09 -4.21591e-08 0 
          -8.18131e-10 -4.33575e-08 0 
          -4.06692e-10 -4.37734e-08 0 
          -4.40388e-10 -4.3783e-08 0 
          -1.09564e-09 -4.33227e-08 0 
          -5.25434e-10 -4.36863e-08 0 
          -2.4384e-10 -4.39294e-08 0 
          -3.74938e-10 -4.38453e-08 0 
          -5.35886e-10 -4.35985e-08 0 
          -1.15024e-09 -4.32453e-08 0 
          -2.71123e-10 -4.39172e-08 0 
          -3.26677e-10 -4.37846e-08 0 
          3.59486e-05 0.00346498 0 
          -2.16943e-08 0.00354749 0 
          -6.16726e-06 0.00351846 0 
          0.00010863 0.00261909 0 
          8.21414e-05 0.00277313 0 
          9.56144e-05 0.00308551 0 
          2.83486e-06 0.00301376 0 
          -4.36646e-07 0.00254413 0 
          -2.72169e-06 0.00294289 0 
          -1.67968e-05 0.00293026 0 
          -1.34977e-05 0.00320061 0 
          5.2941e-05 0.00335378 0 
          0.000114618 0.00328735 0 
          1.41207e-05 0.00339944 0 
          1.16841e-05 0.00341284 0 
          0.00010304 0.00332245 0 
          0.000357625 0.00256993 0 
          0.000287004 0.00284857 0 
          0.000249103 0.0029661 0 
          0.000250412 0.00289664 0 
          0.000219524 0.00285203 0 
          0.000187375 0.00134841 0 
          0.000185085 0.00149478 0 
          7.59614e-06 0.00151471 0 