<?xml version="1.0"?>
<VTKFile type="UnstructuredGrid" version="0.1" byte_order="LittleEndian">
  <UnstructuredGrid>
    <Piece NumberOfPoints="36" NumberOfCells="36">
      <Points>
        <DataArray name="Position" type="Float64" NumberOfComponents="3" Format="ascii">
          0.3 0.1 0.0
          0.34 0.1 0.0
          0.38 0.1 0.0
          0.42 0.1 0.0
          0.3 0.14 0.0
          0.3 0.18 0.0
          0.34 0.14 0.0
          0.34 0.18 0.0
          0.3 0.22 0.0
          0.34 0.22 0.0
          0.38 0.14 0.0
          0.38 0.18 0.0
          0.42 0.14 0.0
          0.42 0.18 0.0
          0.38 0.22 0.0
          0.42 0.22 0.0
          0.3 0.26 0.0
          0.3 0.3 0.0
          0.34 0.26 0.0
          0.34 0.3 0.0
          0.38 0.26 0.0
          0.38 0.3 0.0
          0.42 0.26 0.0
          0.42 0.3 0.0
          0.46 0.1 0.0
          0.5 0.1 0.0
          0.46 0.14 0.0
          0.46 0.18 0.0
          0.5 0.14 0.0
          0.5 0.18 0.0
          0.46 0.22 0.0
          0.5 0.22 0.0
          0.46 0.26 0.0
          0.46 0.3 0.0
          0.5 0.26 0.0
          0.5 0.3 0.0
        </DataArray>
      </Points>
      <Cells>
        <DataArray type="Int32" Name="connectivity" Format="ascii">
          0
          1
          2
          3
          4
          5
          6
          7
          8
          9
          10
          11
          12
          13
          14
          15
          16
          17
          18
          19
          20
          21
          22
          23
          24
          25
          26
          27
          28
          29
          30
          31
          32
          33
          34
          35
        </DataArray>
        <DataArray type="Int32" Name="offsets" Format="ascii">
          1
          2
          3
          4
          5
          6
          7
          8
          9
          10
          11
          12
          13
          14
          15
          16
          17
          18
          19
          20
          21
          22
          23
          24
          25
          26
          27
          28
          29
          30
          31
          32
          33
          34
          35
          36
        </DataArray>
        <DataArray type="UInt8" Name="types" Format="ascii">
          1
          1
          1
          1
          1
          1
          1
          1
          1
          1
          1
          1
          1
          1
          1
          1
          1
          1
          1
          1
          1
          1
          1
          1
          1
          1
          1
          1
          1
          1
          1
          1
          1
          1
          1
          1
        </DataArray>
      </Cells>
      <PointData Scalars="scalars">
        <DataArray type="Float64" Name="velocity" NumberOfComponents="3" Format="ascii">
          0 0 0 
          0 0 0 
          0 0 0 
          0 0 0 
          0 0 0 
          0 0 0 
          0 0 0 
          0 0 0 
          0 0 0 
          0 0 0 
          0 0 0 
          0 0 0 
          0 0 0 
          0 0 0 
          0 0 0 
          0 0 0 
          0 0 0 
          0 0 0 
          0 0 0 
          0 0 0 
          0 0 0 
          0 0 0 
          0 0 0 
          0 0 0 
          0 0 0 
          0 0 0 
          0 0 0 
          0 0 0 
          0 0 0 
          0 0 0 
          0 0 0 
          0 0 0 
          0 0 0 
          0 0 0 
          0 0 0 
          0 0 0 
        </DataArray>
        <DataArray type="Float64" Name="id" NumberOfComponents="1" Format="ascii">
          0 
          6 
          12 
          18 
          1 
          2 
          7 
          8 
          3 
          9 
          13 
          14 
          19 
          20 
          15 
          21 
          4 
          5 
          10 
          11 
          16 
          17 
          22 
          23 
          24 
          30 
          25 
          26 
          31 
          32 
          27 
          33 
          28 
          29 
          34 
          35 
        </DataArray>
        <DataArray type="Float64" Name="function" NumberOfComponents="1" Format="ascii">
          1 
          1 
          1 
          1 
          1 
          1 
          1 
          1 
          0 
          0 
          1 
          1 
          1 
          1 
          0 
          0 
          0 
          0 
          0 
          0 
          0 
          0 
          0 
          0 
          1 
          1 
          1 
          1 
          1 
          1 
          0 
          0 
          0 
          0 
          0 
          0 
        </DataArray>
        <DataArray type="Float64" Name="initial C_0" NumberOfComponents="1" Format="ascii">
          0.999968 
          0.999959 
          0.999947 
          0.999931 
          1.00825 
          0.935972 
          1.01017 
          0.920183 
          0.282498 
          0.234242 
          1.01258 
          0.899865 
          1.01547 
          0.874376 
          0.18918 
          0.149305 
          0.011 
          -0.00167172 
          0.00864629 
          -0.00131588 
          0.00669044 
          -0.00101941 
          0.00512458 
          -0.000781532 
          0.999909 
          0.99988 
          1.01876 
          0.843423 
          1.02223 
          0.807399 
          0.115758 
          0.0886458 
          0.0039032 
          -0.000595692 
          0.00297091 
          -0.000453661 
        </DataArray>
        <DataArray type="Float64" Name="initial position" NumberOfComponents="3" Format="ascii">
          0.3 0.1 0 
          0.34 0.1 0 
          0.38 0.1 0 
          0.42 0.1 0 
          0.3 0.14 0 
          0.3 0.18 0 
          0.34 0.14 0 
          0.34 0.18 0 
          0.3 0.22 0 
          0.34 0.22 0 
          0.38 0.14 0 
          0.38 0.18 0 
          0.42 0.14 0 
          0.42 0.18 0 
          0.38 0.22 0 
          0.42 0.22 0 
          0.3 0.26 0 
          0.3 0.3 0 
          0.34 0.26 0 
          0.34 0.3 0 
          0.38 0.26 0 
          0.38 0.3 0 
          0.42 0.26 0 
          0.42 0.3 0 
          0.46 0.1 0 
          0.5 0.1 0 
          0.46 0.14 0 
          0.46 0.18 0 
          0.5 0.14 0 
          0.5 0.18 0 
          0.46 0.22 0 
          0.5 0.22 0 
          0.46 0.26 0 
          0.46 0.3 0 
          0.5 0.26 0 
          0.5 0.3 0 
        </DataArray>
      </PointData>
    </Piece>
  </UnstructuredGrid>
</VTKFile>
