<?xml version="1.0"?>
<VTKFile type="UnstructuredGrid" version="0.1" byte_order="LittleEndian">
  <UnstructuredGrid>
    <Piece NumberOfPoints="36" NumberOfCells="36">
      <Points>
        <DataArray name="Position" type="Float64" NumberOfComponents="3" Format="ascii">
          0.276018 0.102682 0.0
          0.314606 0.101845 0.0
          0.353724 0.101037 0.0
          0.393354 0.100282 0.0
          0.433462 0.0995857 0.0
          0.274589 0.143934 0.0
          0.313076 0.142512 0.0
          0.316223 0.185432 0.0
          0.277604 0.187617 0.0
          0.28419 0.227086 0.0
          0.323075 0.224622 0.0
          0.352143 0.141154 0.0
          0.355378 0.1833 0.0
          0.391774 0.139913 0.0
          0.395065 0.181298 0.0
          0.431926 0.138807 0.0
          0.435237 0.179456 0.0
          0.362341 0.222236 0.0
          0.402013 0.220027 0.0
          0.442074 0.21805 0.0
          0.291388 0.267429 0.0
          0.297076 0.308878 0.0
          0.330565 0.264563 0.0
          0.336532 0.305951 0.0
          0.369923 0.261793 0.0
          0.376022 0.30308 0.0
          0.409499 0.259232 0.0
          0.415585 0.300361 0.0
          0.449332 0.256962 0.0
          0.455279 0.297849 0.0
          0.47402 0.0989426 0.0
          0.472563 0.137824 0.0
          0.475848 0.177761 0.0
          0.482489 0.216267 0.0
          0.489427 0.254933 0.0
          0.495133 0.295543 0.0
        </DataArray>
      </Points>
      <Cells>
        <DataArray type="Int32" Name="connectivity" Format="ascii">
          0
          1
          2
          3
          4
          5
          6
          7
          8
          9
          10
          11
          12
          13
          14
          15
          16
          17
          18
          19
          20
          21
          22
          23
          24
          25
          26
          27
          28
          29
          30
          31
          32
          33
          34
          35
        </DataArray>
        <DataArray type="Int32" Name="offsets" Format="ascii">
          1
          2
          3
          4
          5
          6
          7
          8
          9
          10
          11
          12
          13
          14
          15
          16
          17
          18
          19
          20
          21
          22
          23
          24
          25
          26
          27
          28
          29
          30
          31
          32
          33
          34
          35
          36
        </DataArray>
        <DataArray type="UInt8" Name="types" Format="ascii">
          1
          1
          1
          1
          1
          1
          1
          1
          1
          1
          1
          1
          1
          1
          1
          1
          1
          1
          1
          1
          1
          1
          1
          1
          1
          1
          1
          1
          1
          1
          1
          1
          1
          1
          1
          1
        </DataArray>
      </Cells>
      <PointData Scalars="scalars">
        <DataArray type="Float64" Name="velocity" NumberOfComponents="3" Format="ascii">
          -0.000342601 3.83086e-05 0 
          -0.000362773 2.63569e-05 0 
          -0.000375364 1.48076e-05 0 
          -0.000380651 4.0269e-06 0 
          -0.000379116 -5.91826e-06 0 
          -0.000363014 5.61989e-05 0 
          -0.000384633 3.58793e-05 0 
          -0.000339669 7.7593e-05 0 
          -0.000319948 0.000108812 0 
          -0.000225864 0.000101227 0 
          -0.000241788 6.60235e-05 0 
          -0.000397954 1.64882e-05 0 
          -0.000351749 4.71466e-05 0 
          -0.000403223 -1.24871e-06 0 
          -0.000356214 1.85425e-05 0 
          -0.000401053 -1.70384e-05 0 
          -0.000353764 -7.77195e-06 0 
          -0.000252272 3.19451e-05 0 
          -0.000256963 3.82725e-07 0 
          -0.000256082 -2.78532e-05 0 
          -0.000123023 0.000106124 0 
          -4.17749e-05 0.000126822 0 
          -0.000134789 6.51903e-05 0 
          -4.9536e-05 8.50171e-05 0 
          -0.000143964 2.56193e-05 0 
          -5.68343e-05 4.40061e-05 0 
          -0.000150018 -1.09751e-05 0 
          -6.30758e-05 5.16257e-06 0 
          -0.000152405 -4.3406e-05 0 
          -6.74496e-05 -3.07283e-05 0 
          -0.000371142 -1.51063e-05 0 
          -0.000391958 -3.10816e-05 0 
          -0.000345024 -3.19818e-05 0 
          -0.000250151 -5.33255e-05 0 
          -0.000151049 -7.23825e-05 0 
          -6.95286e-05 -6.36784e-05 0 
        </DataArray>
        <DataArray type="Float64" Name="id" NumberOfComponents="1" Format="ascii">
          0 
          6 
          12 
          18 
          24 
          1 
          7 
          8 
          2 
          3 
          9 
          13 
          14 
          19 
          20 
          25 
          26 
          15 
          21 
          27 
          4 
          5 
          10 
          11 
          16 
          17 
          22 
          23 
          28 
          29 
          30 
          31 
          32 
          33 
          34 
          35 
        </DataArray>
        <DataArray type="Float64" Name="function" NumberOfComponents="1" Format="ascii">
          1 
          1 
          1 
          1 
          1 
          1 
          1 
          1 
          1 
          0 
          0 
          1 
          1 
          1 
          1 
          1 
          1 
          0 
          0 
          0 
          0 
          0 
          0 
          0 
          0 
          0 
          0 
          0 
          0 
          0 
          1 
          1 
          1 
          0 
          0 
          0 
        </DataArray>
        <DataArray type="Float64" Name="initial C_0" NumberOfComponents="1" Format="ascii">
          0.999968 
          0.999959 
          0.999947 
          0.999931 
          0.999909 
          1.00825 
          1.01017 
          0.920183 
          0.935972 
          0.282498 
          0.234242 
          1.01258 
          0.899865 
          1.01547 
          0.874376 
          1.01876 
          0.843423 
          0.18918 
          0.149305 
          0.115758 
          0.011 
          -0.00167172 
          0.00864629 
          -0.00131588 
          0.00669044 
          -0.00101941 
          0.00512458 
          -0.000781532 
          0.0039032 
          -0.000595692 
          0.99988 
          1.02223 
          0.807399 
          0.0886458 
          0.00297091 
          -0.000453661 
        </DataArray>
        <DataArray type="Float64" Name="initial position" NumberOfComponents="3" Format="ascii">
          0.3 0.1 0 
          0.34 0.1 0 
          0.38 0.1 0 
          0.42 0.1 0 
          0.46 0.1 0 
          0.3 0.14 0 
          0.34 0.14 0 
          0.34 0.18 0 
          0.3 0.18 0 
          0.3 0.22 0 
          0.34 0.22 0 
          0.38 0.14 0 
          0.38 0.18 0 
          0.42 0.14 0 
          0.42 0.18 0 
          0.46 0.14 0 
          0.46 0.18 0 
          0.38 0.22 0 
          0.42 0.22 0 
          0.46 0.22 0 
          0.3 0.26 0 
          0.3 0.3 0 
          0.34 0.26 0 
          0.34 0.3 0 
          0.38 0.26 0 
          0.38 0.3 0 
          0.42 0.26 0 
          0.42 0.3 0 
          0.46 0.26 0 
          0.46 0.3 0 
          0.5 0.1 0 
          0.5 0.14 0 
          0.5 0.18 0 
          0.5 0.22 0 
          0.5 0.26 0 
          0.5 0.3 0 
        </DataArray>
      </PointData>
    </Piece>
  </UnstructuredGrid>
</VTKFile>
