<?xml version="1.0"?>
<VTKFile type="UnstructuredGrid" version="0.1" byte_order="LittleEndian">
  <UnstructuredGrid>
    <Piece NumberOfPoints="9" NumberOfCells="9">
      <Points>
        <DataArray name="Position" type="Float64" NumberOfComponents="3" Format="ascii">
          0.276018 0.102682 0.0
          0.373476 0.100652 0.0
          0.280777 0.207696 0.0
          0.378514 0.202112 0.0
          0.297076 0.308878 0.0
          0.39579 0.301697 0.0
          0.47402 0.0989426 0.0
          0.479073 0.19739 0.0
          0.495133 0.295543 0.0
        </DataArray>
      </Points>
      <Cells>
        <DataArray type="Int32" Name="connectivity" Format="ascii">
          0
          1
          2
          3
          4
          5
          6
          7
          8
        </DataArray>
        <DataArray type="Int32" Name="offsets" Format="ascii">
          1
          2
          3
          4
          5
          6
          7
          8
          9
        </DataArray>
        <DataArray type="UInt8" Name="types" Format="ascii">
          1
          1
          1
          1
          1
          1
          1
          1
          1
        </DataArray>
      </Cells>
      <PointData Scalars="scalars">
        <DataArray type="Float64" Name="velocity" NumberOfComponents="3" Format="ascii">
          -0.000342601 3.83086e-05 0 
          -0.000378916 9.31709e-06 0 
          -0.00027461 0.000109948 0 
          -0.000306945 3.01765e-05 0 
          -4.17749e-05 0.000126822 0 
          -6.01359e-05 2.42462e-05 0 
          -0.000371142 -1.51063e-05 0 
          -0.000298952 -3.7289e-05 0 
          -6.95286e-05 -6.36784e-05 0 
        </DataArray>
        <DataArray type="Float64" Name="id" NumberOfComponents="1" Format="ascii">
          0 
          3 
          1 
          4 
          2 
          5 
          6 
          7 
          8 
        </DataArray>
        <DataArray type="Float64" Name="function" NumberOfComponents="1" Format="ascii">
          1 
          1 
          1 
          1 
          0 
          0 
          1 
          0 
          0 
        </DataArray>
        <DataArray type="Float64" Name="initial C_0" NumberOfComponents="1" Format="ascii">
          0.999968 
          0.999939 
          0.62518 
          0.519014 
          -0.00167172 
          -0.000893448 
          0.99988 
          0.411806 
          -0.000453661 
        </DataArray>
        <DataArray type="Float64" Name="initial position" NumberOfComponents="3" Format="ascii">
          0.3 0.1 0 
          0.4 0.1 0 
          0.3 0.2 0 
          0.4 0.2 0 
          0.3 0.3 0 
          0.4 0.3 0 
          0.5 0.1 0 
          0.5 0.2 0 
          0.5 0.3 0 
        </DataArray>
      </PointData>
    </Piece>
  </UnstructuredGrid>
</VTKFile>
